curpath /scratch/pbsjobs/job.16219499.hpc
lib.num_threads() =  20
at beginning memory used: 0.05 GB
mol.max_memory 80000


System: uname_result(system='Linux', node='compt255', release='3.10.0-1127.el7.x86_64', version='#1 SMP Tue Feb 18 16:39:12 EST 2020', machine='x86_64', processor='x86_64')  Threads 20
Python 3.7.0 (default, Aug 23 2018, 14:24:33) 
[GCC 6.3.0]
numpy 1.18.1  scipy 1.4.1
Date: Mon Aug 30 17:44:04 2021
PySCF version 1.7.4
PySCF path  /home/zzz6/.local/lib/python3.7/site-packages/pyscf

[CONFIG] conf_file None
[INPUT] verbose = 5
[INPUT] max_memory = 80000 
[INPUT] num. atoms = 57
[INPUT] num. electrons = 216
[INPUT] charge = 0
[INPUT] spin (= nelec alpha-beta = 2S) = 0
[INPUT] symmetry False subgroup None
[INPUT] Mole.unit = angstrom
[INPUT]  1 O     -2.179188955825  -2.941769011295  -1.278730844551 AA   -4.118070300187  -5.559137753081  -2.416451083234 Bohr
[INPUT]  2 N     -1.064351126260  -1.229639959168  -0.122800225589 AA   -2.011332129004  -2.323682754648  -0.232058794399 Bohr
[INPUT]  3 N     -2.754235230032  -0.071226713937   0.847581952977 AA   -5.204750267390  -0.134598982093   1.601697759250 Bohr
[INPUT]  4 N      0.889648575415   0.500898607937   0.742946778759 AA    1.681192154643   0.946561185178   1.403965936982 Bohr
[INPUT]  5 N      4.569461395501  -1.756771810009  -1.021423280601 AA    8.635030574271  -3.319817584274  -1.930210257590 Bohr
[INPUT]  6 N     -1.847556968179   3.405717792202  -0.371023783380 AA   -3.491376669390   6.435873884820  -0.701133336288 Bohr
[INPUT]  7 N     -3.774110920564   2.368835605142  -1.183652149686 AA   -7.132036003596   4.476450527836  -2.236778389660 Bohr
[INPUT]  8 N     -1.704822828953   1.548221397269  -1.891351531673 AA   -3.221648237628   2.925714421030  -3.574136400138 Bohr
[INPUT]  9 C     -4.751908269950  -1.399167639404   0.036460923237 AA   -8.979805199261  -2.644043640828   0.068901159166 Bohr
[INPUT] 10 C     -3.272119665404  -1.119812803816   0.133541552029 AA   -6.183410014417  -2.116139509994   0.252356959583 Bohr
[INPUT] 11 C     -1.424194587035  -0.124692882721   0.686513021557 AA   -2.691337717585  -0.235635398024   1.297321591690 Bohr
[INPUT] 12 C     -2.234917044235  -1.847890818800  -0.472592957727 AA   -4.223381124726  -3.492007555630  -0.893071258502 Bohr
[INPUT] 13 C     -0.369529055005   0.744229570291   1.085744024627 AA   -0.698308709029   1.406390061652   2.051758847928 Bohr
[INPUT] 14 C     -5.112168505777  -2.801123327945   0.586114936849 AA   -9.660598378546  -5.293355930947   1.107596708162 Bohr
[INPUT] 15 C     -0.686208243709   1.994300826611   1.871170237551 AA   -1.296745645030   3.768682372289   3.535999281409 Bohr
[INPUT] 16 C      1.215525253655  -0.607295738512  -0.010290712150 AA    2.297009826901  -1.147622622403  -0.019446627590 Bohr
[INPUT] 17 C      0.244292505361  -1.480280257873  -0.478796048918 AA    0.461645929415  -2.797324274981  -0.904793401980 Bohr
[INPUT] 18 C     -5.264378306249  -1.214711349427  -1.408235861504 AA   -9.948233214913  -2.295471770817  -2.661180097033 Bohr
[INPUT] 19 C      2.636811351863  -0.807280516610  -0.314046146447 AA    4.982851297165  -1.525539082091  -0.593461207259 Bohr
[INPUT] 20 C     -0.049535345926   3.269481292023   1.280832236309 AA   -0.093608237286   6.178424211314   2.420422138139 Bohr
[INPUT] 21 C      3.717267294176   0.146392261409  -0.130687467364 AA    7.024617117795   0.276641280819  -0.246963521231 Bohr
[INPUT] 22 C     -4.695461692319  -3.022878363374   2.042480177910 AA   -8.873136626870  -5.712412214650   3.859728151103 Bohr
[INPUT] 23 C      4.914503740160  -0.485781273528  -0.591311148402 AA    9.287066107053  -0.917993563411  -1.117416124882 Bohr
[INPUT] 24 C      3.215752299357  -1.952239435237  -0.853459227613 AA    6.076891130226  -3.689197862174  -1.612804198671 Bohr
[INPUT] 25 C     -0.413124429578   3.498750063268  -0.202260499664 AA   -0.780692027269   6.611679397881  -0.382216950183 Bohr
[INPUT] 26 C      3.797541466403   1.466900504480   0.365724681600 AA    7.176313318182   2.772040205453   0.691119485217 Bohr
[INPUT] 27 C      6.165696991928   0.151989214391  -0.571822473937 AA   11.651478681799   0.287217989087  -1.080587867613 Bohr
[INPUT] 28 C      5.039424612170   2.104535772480   0.385207373864 AA    9.523132342395   3.976996229338   0.727936437765 Bohr
[INPUT] 29 C      6.210820467675   1.457483236908  -0.077007278262 AA   11.736749692750   2.754244148901  -0.145522665513 Bohr
[INPUT] 30 C     -2.367271816418   2.470663446856  -1.089070099331 AA   -4.473495395431   4.668877260531  -2.058044218189 Bohr
[INPUT] 31 H     -5.240127551101  -0.648349853880   0.683617001394 AA   -9.902405929368  -1.225203656736   1.291848906731 Bohr
[INPUT] 32 H     -4.646539501173  -3.581022257263  -0.056800145530 AA   -8.780687084190  -6.767151312198  -0.107336718887 Bohr
[INPUT] 33 H     -6.202455999323  -2.950949206217   0.474237580850 AA  -11.720943138386  -5.576485807253   0.896179145782 Bohr
[INPUT] 34 H     -0.317518950401   1.853774141955   2.905218485164 AA   -0.600023855618   3.503125425096   5.490067268984 Bohr
[INPUT] 35 H     -1.780280723268   2.108015382584   1.916088267062 AA   -3.364242991819   3.983571739454   3.620882055239 Bohr
[INPUT] 36 H      0.417421974303  -2.341043567221  -1.126165446170 AA    0.788813209807  -4.423931187722  -2.128144264210 Bohr
[INPUT] 37 H     -4.764083506507  -1.918702512840  -2.099204851951 AA   -9.002813061855  -3.625822263782  -3.966922249545 Bohr
[INPUT] 38 H     -6.351408308280  -1.399039030969  -1.467799777411 AA  -12.002422207936  -2.643800606109  -2.773739585004 Bohr
[INPUT] 39 H     -5.067842345097  -0.193099174830  -1.775768741502 AA   -9.576834074707  -0.364904555307  -3.355716582003 Bohr
[INPUT] 40 H     -0.405309511699   4.127864640999   1.878062912898 AA   -0.765923972792   7.800533650764   3.549024550080 Bohr
[INPUT] 41 H      1.049795064022   3.226723189236   1.380707862874 AA    1.983825157921   6.097623107439   2.609159718866 Bohr
[INPUT] 42 H     -5.186229906050  -2.288302095114   2.704962469518 AA   -9.800554141463  -4.324264250034   5.111638244616 Bohr
[INPUT] 43 H     -4.973317850569  -4.033766344294   2.387442244705 AA   -9.398208667986  -7.622713641205   4.511611980709 Bohr
[INPUT] 44 H     -3.605003926057  -2.903636943432   2.167573846940 AA   -6.812470098229  -5.487078588256   4.096120925486 Bohr
[INPUT] 45 H      2.763100320317  -2.907804968554  -1.118858521750 AA    5.221502860097  -5.494955014217  -2.114336178243 Bohr
[INPUT] 46 H      0.176455262966   2.785359124703  -0.821953834709 AA    0.333452120244   5.263565904248  -1.553267634636 Bohr
[INPUT] 47 H     -0.066968656553   4.509274249580  -0.495261220332 AA   -0.126552419815   8.521293352260  -0.935908066546 Bohr
[INPUT] 48 H      5.218084548990  -2.450451661075  -1.380326494230 AA    9.860750692417  -4.630682520917  -2.608439036575 Bohr
[INPUT] 49 H     -3.035351162890  -3.403435700640  -1.224330562938 AA   -5.735982389743  -6.431561356777  -2.313649449888 Bohr
[INPUT] 50 H      2.891823421539   1.953268347481   0.731793613226 AA    5.464754267311   3.691142224520   1.382889508704 Bohr
[INPUT] 51 H      7.068813889139  -0.353157824225  -0.930171143497 AA   13.358122275993  -0.667371566532  -1.757768710183 Bohr
[INPUT] 52 H      5.112695315934   3.127517787194   0.769249070881 AA    9.661593905463   5.910152067503   1.453670065542 Bohr
[INPUT] 53 H      7.168723407752   1.987339389682  -0.045577179300 AA   13.546923903411   3.755527163059  -0.086128386406 Bohr
[INPUT] 54 H     -4.165587979547   3.110920799507  -0.596173909352 AA   -7.871820429125   5.878788306282  -1.126605411287 Bohr
[INPUT] 55 H     -4.066298358694   1.472749078223  -0.774612113509 AA   -7.684190238700   2.783092408047  -1.463804747303 Bohr
[INPUT] 56 H     -0.740397062233   1.332910033765  -1.647436089079 AA   -1.399147671054   2.518834912501  -3.113203016085 Bohr
[INPUT] 57 H     -2.245254867767   0.747707286033  -2.210869484720 AA   -4.242916779926   1.412961991944  -4.177937823279 Bohr
[INPUT] ---------------- BASIS SET ---------------- 
[INPUT] l, kappa, [nprim/nctr], expnt,             c_1 c_2 ...
[INPUT] C
[INPUT] 0    0    [6    /1   ]  13575.349682      0.00022245814352
                                2035.233368       0.0017232738252
                                463.22562359      0.0089255715314
                                131.20019598      0.035727984502
                                42.853015891      0.11076259931
                                15.584185766      0.24295627626
[INPUT] 0    0    [2    /1   ]  6.2067138508      0.41440263448
                                2.5764896527      0.23744968655
[INPUT] 0    0    [1    /1   ]  0.57696339419        1
[INPUT] 0    0    [1    /1   ]  0.22972831358        1
[INPUT] 0    0    [1    /1   ]  0.095164440028       1
[INPUT] 1    0    [4    /1   ]  34.697232244      0.0053333657805
                                7.9582622826      0.035864109092
                                2.3780826883      0.14215873329
                                0.81433208183     0.34270471845
[INPUT] 1    0    [1    /1   ]  0.28887547253        1
[INPUT] 1    0    [1    /1   ]  0.10056823671        1
[INPUT] 2    0    [1    /1   ]  1.097                1
[INPUT] 2    0    [1    /1   ]  0.318                1
[INPUT] 3    0    [1    /1   ]  0.761                1
[INPUT] N
[INPUT] 0    0    [6    /1   ]  19730.800647      0.00021887984991
                                2957.8958745      0.0016960708803
                                673.22133595      0.0087954603538
                                190.68249494      0.035359382605
                                62.295441898      0.11095789217
                                22.654161182      0.24982972552
[INPUT] 0    0    [2    /1   ]  8.9791477428      0.40623896148
                                3.686300237       0.24338217176
[INPUT] 0    0    [1    /1   ]  0.84660076805        1
[INPUT] 0    0    [1    /1   ]  0.33647133771        1
[INPUT] 0    0    [1    /1   ]  0.13647653675        1
[INPUT] 1    0    [4    /1   ]  49.20038051       0.0055552416751
                                11.346790537      0.038052379723
                                3.4273972411      0.14953671029
                                1.1785525134      0.3494930523
[INPUT] 1    0    [1    /1   ]  0.41642204972        1
[INPUT] 1    0    [1    /1   ]  0.14260826011        1
[INPUT] 2    0    [1    /1   ]  1.654                1
[INPUT] 2    0    [1    /1   ]  0.469                1
[INPUT] 3    0    [1    /1   ]  1.093                1
[INPUT] H
[INPUT] 0    0    [3    /1   ]  34.061341         0.0060251978
                                5.1235746         0.045021094
                                1.1646626         0.20189726
[INPUT] 0    0    [1    /1   ]  0.32723041           1
[INPUT] 0    0    [1    /1   ]  0.10307241           1
[INPUT] 1    0    [1    /1   ]  0.8                  1
[INPUT] O
[INPUT] 0    0    [6    /1   ]  27032.382631      0.00021726302465
                                4052.3871392      0.0016838662199
                                922.3272271       0.0087395616265
                                261.24070989      0.035239968808
                                85.354641351      0.11153519115
                                31.035035245      0.25588953961
[INPUT] 0    0    [2    /1   ]  12.260860728      0.39768730901
                                4.9987076005      0.2462784943
[INPUT] 0    0    [1    /1   ]  1.1703108158         1
[INPUT] 0    0    [1    /1   ]  0.46474740994        1
[INPUT] 0    0    [1    /1   ]  0.18504536357        1
[INPUT] 1    0    [4    /1   ]  63.274954801      0.0060685103418
                                14.627049379      0.041912575824
                                4.4501223456      0.16153841088
                                1.5275799647      0.35706951311
[INPUT] 1    0    [1    /1   ]  0.52935117943        1
[INPUT] 1    0    [1    /1   ]  0.1747842127         1
[INPUT] 2    0    [1    /1   ]  2.314                1
[INPUT] 2    0    [1    /1   ]  0.645                1
[INPUT] 3    0    [1    /1   ]  1.428                1

nuclear repulsion = 2962.40338727846
number of shells = 438
number of NR pGTOs = 1596
number of NR cGTOs = 1092
basis = def2-tzvp
ecp = {}
CPU time:         2.54
RKS
Density fitting turned on
Molecule built
Calculating SCF Energy...


******** <class 'pyscf.df.df_jk.density_fit.<locals>.DFHF'> ********
method = DFHF-RKS-RHF
initial guess = chkfile
damping factor = 0
level_shift factor = 0
DIIS = <class 'pyscf.scf.diis.CDIIS'>
diis_start_cycle = 1
diis_space = 8
SCF conv_tol = 1e-10
SCF conv_tol_grad = None
SCF max_cycles = 50
direct_scf = True
direct_scf_tol = 1e-13
chkfile to save SCF result = 57_Cypridina_luciferin_pbe0.chk
max_memory 80000 MB (current use 55 MB)
XC functionals = pbe0
small_rho_cutoff = 1e-07
radial grids: 
    Treutler-Ahlrichs [JCP 102, 346 (1995); DOI:10.1063/1.469408] (M4) radial grids
    
becke partition: Becke, JCP 88, 2547 (1988); DOI:10.1063/1.454033
pruning grids: <function nwchem_prune at 0x7f15f4595e18>
grids dens level: 3
symmetrized grids: False
atomic radii adjust function: <function treutler_atomic_radii_adjust at 0x7f15f4595d90>
Set gradient conv threshold to 1e-05
atom O rad-grids = 75, ang-grids = [ 50  50  50  50  50  50  50  50  50  50  50  50  50  50  50  50  50  50
  50  50  50  50  86  86  86  86  86  86  86  86  86 266 266 266 266 266
 266 266 302 302 302 302 302 302 302 302 302 302 302 302 302 302 302 302
 302 302 302 266 266 266 266 266 266 266 266 266 266 266 266 266 266 266
 266 266 266]
atom N rad-grids = 75, ang-grids = [ 50  50  50  50  50  50  50  50  50  50  50  50  50  50  50  50  50  50
  50  50  50  50  50  86  86  86  86  86  86  86  86  86 266 266 266 266
 266 266 266 302 302 302 302 302 302 302 302 302 302 302 302 302 302 302
 302 302 302 302 266 266 266 266 266 266 266 266 266 266 266 266 266 266
 266 266 266]
atom C rad-grids = 75, ang-grids = [ 50  50  50  50  50  50  50  50  50  50  50  50  50  50  50  50  50  50
  50  50  50  50  50  86  86  86  86  86  86  86  86  86  86 266 266 266
 266 266 266 266 302 302 302 302 302 302 302 302 302 302 302 302 302 302
 302 302 302 302 302 302 266 266 266 266 266 266 266 266 266 266 266 266
 266 266 266]
atom H rad-grids = 50, ang-grids = [ 50  50  50  50  50  50  50  50  50  50  50  50  50  50  86  86  86  86
 266 266 266 266 302 302 302 302 302 302 302 302 302 302 302 302 302 266
 266 266 266 266 266 266 266 266 266 266 266 266 266 266]
tot grids = 689076
Drop grids 132945
    CPU time for setting up grids    158.62 sec, wall time      9.08 sec
nelec by numeric integration = 215.99995864482582
    CPU time for vxc    217.25 sec, wall time     12.87 sec
******** <class 'pyscf.df.df.DF'> ********
auxbasis = None
max_memory = 80000
_cderi_to_save = /tmp/job.16219499.hpc/tmp_2eynqvn
Default auxbasis def2-tzvp-jkfit is used for C def2-tzvp
Default auxbasis def2-tzvp-jkfit is used for N def2-tzvp
Default auxbasis def2-tzvp-jkfit is used for H def2-tzvp
Default auxbasis def2-tzvp-jkfit is used for O def2-tzvp
num shells = 912, num cGTOs = 2752
size of aux basis 2752
int3c2e [1/1], AO [0:438], nrow = 596778
    CPU time for cholesky_eri    306.43 sec, wall time     51.36 sec
    CPU time for df vj and vk    963.87 sec, wall time     95.12 sec
E1 = -7673.384894656524  Ecoul = 3583.9614971091178  Exc = -185.0358360333303
init E= -1312.05584630228
cond(S) = 1525712.414684983
    CPU time for initialize scf   1351.98 sec, wall time    118.09 sec
  HOMO = -0.207081081086306  LUMO = -0.0519877263817836
  mo_energy =
[-1.92727935e+01 -1.44800500e+01 -1.44415526e+01 -1.43852675e+01
 -1.43832879e+01 -1.43813267e+01 -1.43702009e+01 -1.43295821e+01
 -1.03273342e+01 -1.03026362e+01 -1.02924244e+01 -1.02818428e+01
 -1.02812338e+01 -1.02783672e+01 -1.02713748e+01 -1.02673324e+01
 -1.02644212e+01 -1.02527372e+01 -1.02449188e+01 -1.02360937e+01
 -1.02328133e+01 -1.02314580e+01 -1.02309536e+01 -1.02294690e+01
 -1.02258281e+01 -1.02231064e+01 -1.02203973e+01 -1.02186024e+01
 -1.02167175e+01 -1.02104950e+01 -1.13077169e+00 -1.06414241e+00
 -1.01455664e+00 -9.84663129e-01 -9.68449627e-01 -9.34682374e-01
 -8.79917674e-01 -8.75663681e-01 -8.62981134e-01 -8.52521766e-01
 -8.34353025e-01 -7.97191297e-01 -7.89630124e-01 -7.72727357e-01
 -7.61135571e-01 -7.57708083e-01 -7.40287143e-01 -7.10750618e-01
 -6.86526680e-01 -6.74261247e-01 -6.53789155e-01 -6.52121633e-01
 -6.43515452e-01 -6.22646856e-01 -6.12234831e-01 -6.05043285e-01
 -5.92155642e-01 -5.74131327e-01 -5.65762270e-01 -5.51893471e-01
 -5.44726666e-01 -5.37330560e-01 -5.18223737e-01 -5.14264103e-01
 -5.09439615e-01 -5.01421808e-01 -4.92657826e-01 -4.88285668e-01
 -4.78687171e-01 -4.75765990e-01 -4.65434497e-01 -4.62329791e-01
 -4.57659100e-01 -4.52467729e-01 -4.48478149e-01 -4.46884233e-01
 -4.43540045e-01 -4.40160154e-01 -4.37673973e-01 -4.33536335e-01
 -4.19878305e-01 -4.13107746e-01 -4.08223997e-01 -4.04180887e-01
 -4.00397061e-01 -3.90949832e-01 -3.82104441e-01 -3.75993815e-01
 -3.67461193e-01 -3.64761124e-01 -3.63555741e-01 -3.58358181e-01
 -3.52328938e-01 -3.51677385e-01 -3.51205679e-01 -3.45813816e-01
 -3.40755284e-01 -3.30831828e-01 -3.04165170e-01 -3.01177841e-01
 -2.82280024e-01 -2.74633127e-01 -2.58212746e-01 -2.45561391e-01
 -2.39717140e-01 -2.28972022e-01 -2.24778634e-01 -2.07081081e-01
 -5.19877264e-02 -3.18036743e-02 -7.15144575e-03  1.00787587e-03
  1.93835027e-02  3.23063050e-02  3.53601886e-02  4.78061026e-02
  4.88418398e-02  5.56637730e-02  5.83415313e-02  6.25213468e-02
  6.70558701e-02  6.85955795e-02  7.66625162e-02  8.13781485e-02
  8.43545733e-02  8.86255498e-02  9.41126102e-02  1.02884060e-01
  1.07066815e-01  1.10301054e-01  1.14990242e-01  1.16700081e-01
  1.20411657e-01  1.23361071e-01  1.27198099e-01  1.31395972e-01
  1.35068160e-01  1.38503062e-01  1.40428306e-01  1.42205370e-01
  1.47704676e-01  1.50106408e-01  1.55888053e-01  1.61295211e-01
  1.64932008e-01  1.71448567e-01  1.72413440e-01  1.75592677e-01
  1.78946072e-01  1.82455790e-01  1.86502273e-01  1.87539700e-01
  1.91851932e-01  1.93203909e-01  1.95083406e-01  2.01929932e-01
  2.04059398e-01  2.05698539e-01  2.09817576e-01  2.17377800e-01
  2.19220798e-01  2.25285636e-01  2.26829373e-01  2.30065953e-01
  2.32016386e-01  2.33252172e-01  2.38516761e-01  2.40118397e-01
  2.45995389e-01  2.47755564e-01  2.50170137e-01  2.54349160e-01
  2.60492084e-01  2.63000878e-01  2.65743091e-01  2.67175380e-01
  2.70733019e-01  2.75679875e-01  2.77985611e-01  2.81154680e-01
  2.84741391e-01  2.89920675e-01  2.92331342e-01  2.97463446e-01
  3.01720305e-01  3.05073996e-01  3.12059611e-01  3.13997802e-01
  3.16193480e-01  3.22301918e-01  3.23799991e-01  3.27503230e-01
  3.32799728e-01  3.34224228e-01  3.40099925e-01  3.46014423e-01
  3.48367982e-01  3.50945654e-01  3.60132828e-01  3.62371883e-01
  3.63701591e-01  3.65006603e-01  3.68716691e-01  3.72176829e-01
  3.74329163e-01  3.77701805e-01  3.81468735e-01  3.83291224e-01
  3.89860318e-01  3.92002879e-01  3.96929495e-01  3.99515003e-01
  4.01568600e-01  4.08082823e-01  4.10082351e-01  4.13822479e-01
  4.14262976e-01  4.16042401e-01  4.20778565e-01  4.26401062e-01
  4.29101593e-01  4.32109780e-01  4.33242106e-01  4.36699874e-01
  4.39336878e-01  4.40652960e-01  4.43017644e-01  4.45280096e-01
  4.48776306e-01  4.51703588e-01  4.53385079e-01  4.55144196e-01
  4.57292256e-01  4.59320284e-01  4.62653367e-01  4.65104168e-01
  4.66374313e-01  4.68218014e-01  4.72451075e-01  4.74336116e-01
  4.77523423e-01  4.79202907e-01  4.80603285e-01  4.85956069e-01
  4.90291479e-01  4.97494948e-01  5.04275134e-01  5.05337797e-01
  5.09172324e-01  5.12342321e-01  5.20214774e-01  5.21057731e-01
  5.26299025e-01  5.29374097e-01  5.33388715e-01  5.35051482e-01
  5.38524259e-01  5.42246549e-01  5.49336493e-01  5.51403047e-01
  5.55454241e-01  5.62289691e-01  5.64012430e-01  5.67222644e-01
  5.70716832e-01  5.74964834e-01  5.82775494e-01  5.85560113e-01
  5.90293563e-01  5.97009089e-01  6.01546615e-01  6.05907435e-01
  6.09400305e-01  6.13379201e-01  6.20824095e-01  6.21023795e-01
  6.23437250e-01  6.25396257e-01  6.29204428e-01  6.35357015e-01
  6.36718352e-01  6.43607347e-01  6.44330343e-01  6.46435074e-01
  6.56851909e-01  6.59861471e-01  6.64428218e-01  6.70977237e-01
  6.76936399e-01  6.78031043e-01  6.83100792e-01  6.87106598e-01
  6.88224810e-01  6.96541447e-01  6.99334638e-01  7.02935409e-01
  7.08159834e-01  7.18228060e-01  7.18835798e-01  7.24526731e-01
  7.30258510e-01  7.33051626e-01  7.39087142e-01  7.42953344e-01
  7.47904245e-01  7.49376513e-01  7.53834542e-01  7.60288072e-01
  7.63396534e-01  7.65949706e-01  7.71420502e-01  7.73502950e-01
  7.81481708e-01  7.86493743e-01  7.87540029e-01  7.94411627e-01
  7.99888463e-01  8.01372383e-01  8.09648369e-01  8.11138573e-01
  8.13174227e-01  8.20915702e-01  8.23175244e-01  8.28906456e-01
  8.39605805e-01  8.43069687e-01  8.45990788e-01  8.50397787e-01
  8.56508792e-01  8.60814300e-01  8.64030693e-01  8.67284335e-01
  8.70175965e-01  8.79385999e-01  8.81230174e-01  8.87456354e-01
  8.90456398e-01  8.94657488e-01  9.01845587e-01  9.02801351e-01
  9.14643911e-01  9.18658564e-01  9.25910238e-01  9.35630528e-01
  9.41069242e-01  9.46497601e-01  9.53246606e-01  9.54770718e-01
  9.62788807e-01  9.65240010e-01  9.69610932e-01  9.76122009e-01
  9.80170936e-01  9.87520367e-01  9.96476862e-01  1.00256497e+00
  1.00999200e+00  1.01315971e+00  1.01791519e+00  1.02780742e+00
  1.03084244e+00  1.03979944e+00  1.04875251e+00  1.05342381e+00
  1.05705545e+00  1.06323689e+00  1.06793677e+00  1.07176868e+00
  1.07669684e+00  1.08499123e+00  1.09760816e+00  1.10054897e+00
  1.10943362e+00  1.11015352e+00  1.11337778e+00  1.11601579e+00
  1.12740894e+00  1.13382355e+00  1.14384073e+00  1.14995163e+00
  1.15263219e+00  1.16046260e+00  1.16671531e+00  1.17158996e+00
  1.17823300e+00  1.18798736e+00  1.19064591e+00  1.19391951e+00
  1.20110700e+00  1.20905102e+00  1.21667768e+00  1.21979223e+00
  1.22294432e+00  1.22740702e+00  1.23174345e+00  1.24283465e+00
  1.24548089e+00  1.25080403e+00  1.25623839e+00  1.25946792e+00
  1.26726849e+00  1.27339723e+00  1.27656339e+00  1.28226348e+00
  1.29304340e+00  1.29921790e+00  1.30848730e+00  1.31330211e+00
  1.32115551e+00  1.32641630e+00  1.33052531e+00  1.34026061e+00
  1.34680332e+00  1.34886441e+00  1.36279992e+00  1.36870097e+00
  1.37400248e+00  1.37820784e+00  1.38307304e+00  1.39236414e+00
  1.39367567e+00  1.40645258e+00  1.40860657e+00  1.41052133e+00
  1.41821968e+00  1.42206612e+00  1.42329651e+00  1.43000745e+00
  1.44255877e+00  1.44471234e+00  1.45153855e+00  1.45853313e+00
  1.46283011e+00  1.46677581e+00  1.47577626e+00  1.47757177e+00
  1.48494400e+00  1.49345321e+00  1.49811611e+00  1.50601100e+00
  1.51070058e+00  1.51466602e+00  1.51796738e+00  1.52211894e+00
  1.52384823e+00  1.53001808e+00  1.53770080e+00  1.53972059e+00
  1.54276582e+00  1.55835950e+00  1.56514458e+00  1.56749303e+00
  1.58045855e+00  1.58364209e+00  1.58622496e+00  1.58834294e+00
  1.58932227e+00  1.59070947e+00  1.59754809e+00  1.59885706e+00
  1.60640188e+00  1.60776247e+00  1.61473239e+00  1.61653776e+00
  1.61777512e+00  1.62810133e+00  1.62899147e+00  1.63894259e+00
  1.64243777e+00  1.64867238e+00  1.65315103e+00  1.65794550e+00
  1.66210280e+00  1.66698791e+00  1.66774157e+00  1.67802677e+00
  1.68241525e+00  1.68629013e+00  1.68829129e+00  1.69217363e+00
  1.69889151e+00  1.70385805e+00  1.71026652e+00  1.71142270e+00
  1.71914773e+00  1.72216734e+00  1.72988458e+00  1.73349795e+00
  1.74242759e+00  1.74987661e+00  1.75560959e+00  1.76025940e+00
  1.76093280e+00  1.76569066e+00  1.77869618e+00  1.78489825e+00
  1.78945775e+00  1.79118100e+00  1.79737392e+00  1.80607849e+00
  1.80872818e+00  1.81256264e+00  1.81898702e+00  1.82956795e+00
  1.83156236e+00  1.83440161e+00  1.84111577e+00  1.85119404e+00
  1.85591425e+00  1.86680192e+00  1.86896066e+00  1.87303088e+00
  1.88203341e+00  1.88456808e+00  1.89091393e+00  1.90243229e+00
  1.90790497e+00  1.91385012e+00  1.92186645e+00  1.93029363e+00
  1.93417952e+00  1.94632018e+00  1.95560546e+00  1.96221288e+00
  1.96629105e+00  1.96739810e+00  1.97079542e+00  1.97565538e+00
  1.98131845e+00  1.99189033e+00  1.99869703e+00  2.00312757e+00
  2.00594664e+00  2.01231271e+00  2.01465793e+00  2.01948468e+00
  2.02721768e+00  2.03279404e+00  2.04037638e+00  2.04296869e+00
  2.04884471e+00  2.05183983e+00  2.05624205e+00  2.05890340e+00
  2.06944123e+00  2.07770736e+00  2.08237162e+00  2.08251831e+00
  2.09149466e+00  2.09943598e+00  2.11039068e+00  2.11484059e+00
  2.12540721e+00  2.13579789e+00  2.13758202e+00  2.14727504e+00
  2.15523124e+00  2.16684949e+00  2.17345762e+00  2.17619647e+00
  2.18122335e+00  2.19156178e+00  2.19806338e+00  2.20144247e+00
  2.20320192e+00  2.20963985e+00  2.22202745e+00  2.22287659e+00
  2.22710144e+00  2.24098595e+00  2.24208286e+00  2.24664115e+00
  2.24987157e+00  2.27244966e+00  2.27579030e+00  2.28425852e+00
  2.28908364e+00  2.30014431e+00  2.30429688e+00  2.31021397e+00
  2.31450653e+00  2.32190288e+00  2.32362392e+00  2.32680053e+00
  2.33756465e+00  2.33792597e+00  2.34459769e+00  2.34990147e+00
  2.35511389e+00  2.35984229e+00  2.36969061e+00  2.37361386e+00
  2.37804878e+00  2.39311842e+00  2.40029733e+00  2.40408927e+00
  2.41188072e+00  2.41717992e+00  2.41977389e+00  2.42756304e+00
  2.43977746e+00  2.44183251e+00  2.44644204e+00  2.45152425e+00
  2.45502660e+00  2.47044994e+00  2.47590254e+00  2.47949108e+00
  2.48902206e+00  2.49089801e+00  2.49416123e+00  2.50373518e+00
  2.51070295e+00  2.51887050e+00  2.52321534e+00  2.52507438e+00
  2.53342057e+00  2.54083469e+00  2.54518823e+00  2.55089151e+00
  2.56282618e+00  2.57039464e+00  2.57370222e+00  2.58604179e+00
  2.58740455e+00  2.58816885e+00  2.59038685e+00  2.59605583e+00
  2.60215051e+00  2.60683708e+00  2.61495541e+00  2.61702316e+00
  2.62448893e+00  2.62843758e+00  2.63235886e+00  2.63456701e+00
  2.64335009e+00  2.64824215e+00  2.65277235e+00  2.66173948e+00
  2.66482545e+00  2.66938546e+00  2.67392868e+00  2.67667357e+00
  2.68298154e+00  2.68356033e+00  2.69087219e+00  2.69361710e+00
  2.70091750e+00  2.70325682e+00  2.71024214e+00  2.71076174e+00
  2.71404833e+00  2.71858812e+00  2.72431619e+00  2.72526755e+00
  2.73522419e+00  2.73757374e+00  2.74650534e+00  2.75108815e+00
  2.75470927e+00  2.76104548e+00  2.76789605e+00  2.76929034e+00
  2.77085705e+00  2.77968099e+00  2.78324508e+00  2.79159812e+00
  2.79627545e+00  2.80006526e+00  2.80925711e+00  2.81676755e+00
  2.81790187e+00  2.82248482e+00  2.83068412e+00  2.83457293e+00
  2.84626998e+00  2.84844003e+00  2.85480892e+00  2.86038131e+00
  2.87301740e+00  2.88306578e+00  2.88791890e+00  2.89726848e+00
  2.89992698e+00  2.90557681e+00  2.91496864e+00  2.91897746e+00
  2.92796602e+00  2.93660070e+00  2.94014150e+00  2.94642140e+00
  2.95122685e+00  2.95590632e+00  2.96216586e+00  2.96545040e+00
  2.97181783e+00  2.98248836e+00  2.98423437e+00  2.98750384e+00
  2.99275768e+00  3.00819295e+00  3.01031613e+00  3.01734048e+00
  3.02211844e+00  3.02506467e+00  3.03030246e+00  3.04250493e+00
  3.04510745e+00  3.04701060e+00  3.04955905e+00  3.06644922e+00
  3.06834209e+00  3.07270073e+00  3.07516840e+00  3.08328380e+00
  3.09360163e+00  3.09544020e+00  3.10285212e+00  3.10969302e+00
  3.11069501e+00  3.11710456e+00  3.11933227e+00  3.12155095e+00
  3.12611829e+00  3.12964327e+00  3.13559583e+00  3.13838716e+00
  3.14640260e+00  3.15308557e+00  3.15821238e+00  3.16080908e+00
  3.16900014e+00  3.17480458e+00  3.17695666e+00  3.18094266e+00
  3.18345941e+00  3.19051210e+00  3.19534375e+00  3.19618827e+00
  3.19958013e+00  3.20458958e+00  3.20723846e+00  3.21146113e+00
  3.21466742e+00  3.21766364e+00  3.23015441e+00  3.23480851e+00
  3.23903327e+00  3.24178971e+00  3.24577130e+00  3.24698903e+00
  3.25361041e+00  3.26323604e+00  3.26699595e+00  3.26889664e+00
  3.27699460e+00  3.27904000e+00  3.28836598e+00  3.28860682e+00
  3.29453354e+00  3.30163962e+00  3.30236346e+00  3.30675834e+00
  3.31224155e+00  3.31469087e+00  3.31765064e+00  3.32442225e+00
  3.32855572e+00  3.33236607e+00  3.33844678e+00  3.34233975e+00
  3.34888902e+00  3.34990508e+00  3.35465409e+00  3.36071231e+00
  3.36549123e+00  3.37527947e+00  3.37749497e+00  3.38022477e+00
  3.38929742e+00  3.39294832e+00  3.39411963e+00  3.39761308e+00
  3.41022302e+00  3.41330808e+00  3.42082092e+00  3.42482980e+00
  3.43186558e+00  3.43507697e+00  3.43860570e+00  3.44273696e+00
  3.44841920e+00  3.45277659e+00  3.45690593e+00  3.46198853e+00
  3.46873880e+00  3.47291869e+00  3.47813202e+00  3.47848615e+00
  3.48909970e+00  3.49226726e+00  3.49891448e+00  3.50965856e+00
  3.51326027e+00  3.51601467e+00  3.52066490e+00  3.52885816e+00
  3.53237571e+00  3.53678201e+00  3.54193886e+00  3.54350981e+00
  3.55016394e+00  3.55771178e+00  3.56241378e+00  3.56600092e+00
  3.56943784e+00  3.57397011e+00  3.58058885e+00  3.59350353e+00
  3.59602711e+00  3.60172004e+00  3.60527736e+00  3.61225660e+00
  3.62297851e+00  3.62567428e+00  3.63429494e+00  3.63646672e+00
  3.65284858e+00  3.66448309e+00  3.67615522e+00  3.68357692e+00
  3.68893278e+00  3.68945198e+00  3.69311248e+00  3.70115290e+00
  3.71337838e+00  3.71989033e+00  3.73135778e+00  3.74210256e+00
  3.74981393e+00  3.75871986e+00  3.77079318e+00  3.77438235e+00
  3.78206149e+00  3.78876413e+00  3.80277078e+00  3.81835721e+00
  3.82426463e+00  3.83696949e+00  3.84045972e+00  3.84783694e+00
  3.85490005e+00  3.86600354e+00  3.87118170e+00  3.88468622e+00
  3.89152545e+00  3.90192560e+00  3.90689770e+00  3.91149219e+00
  3.91902103e+00  3.92486806e+00  3.93674546e+00  3.93866036e+00
  3.94758615e+00  3.96071180e+00  3.97298964e+00  3.97452417e+00
  3.98281546e+00  3.99298620e+00  3.99580161e+00  4.00140795e+00
  4.00935234e+00  4.02326983e+00  4.02895011e+00  4.03807993e+00
  4.04006080e+00  4.04715952e+00  4.05542965e+00  4.06952022e+00
  4.07751924e+00  4.08902805e+00  4.09200737e+00  4.10184988e+00
  4.11226503e+00  4.11509671e+00  4.11775447e+00  4.12793696e+00
  4.13516912e+00  4.14716324e+00  4.15338285e+00  4.16560415e+00
  4.16909044e+00  4.16989671e+00  4.17691587e+00  4.18592478e+00
  4.20483052e+00  4.20808198e+00  4.21358052e+00  4.22303259e+00
  4.23172219e+00  4.24245780e+00  4.26453527e+00  4.26634124e+00
  4.28187084e+00  4.28652824e+00  4.29463891e+00  4.30436123e+00
  4.30939515e+00  4.31628657e+00  4.33087307e+00  4.33944538e+00
  4.35138647e+00  4.35251952e+00  4.36137103e+00  4.36628178e+00
  4.37335085e+00  4.38046514e+00  4.40120505e+00  4.41093765e+00
  4.42250645e+00  4.42505938e+00  4.43435239e+00  4.43978610e+00
  4.45309816e+00  4.46710145e+00  4.47387830e+00  4.47626573e+00
  4.48322438e+00  4.49840169e+00  4.52229632e+00  4.54400962e+00
  4.56964871e+00  4.57775640e+00  4.59060720e+00  4.59701612e+00
  4.59949456e+00  4.60858914e+00  4.62460233e+00  4.63735115e+00
  4.64326445e+00  4.65608064e+00  4.67699009e+00  4.68346841e+00
  4.68951386e+00  4.69607360e+00  4.71826574e+00  4.72169759e+00
  4.72875833e+00  4.74617375e+00  4.75496279e+00  4.75851151e+00
  4.76750105e+00  4.77307104e+00  4.78190022e+00  4.79142781e+00
  4.79485489e+00  4.80062478e+00  4.81136370e+00  4.81459364e+00
  4.82367360e+00  4.83964552e+00  4.85240975e+00  4.85764572e+00
  4.86965965e+00  4.88502970e+00  4.88599420e+00  4.89408866e+00
  4.90478552e+00  4.90818381e+00  4.93585561e+00  4.94882311e+00
  4.96540076e+00  4.97844023e+00  4.98530192e+00  4.98589491e+00
  4.99647779e+00  5.00089087e+00  5.01658441e+00  5.02450238e+00
  5.02626214e+00  5.03613398e+00  5.04002080e+00  5.05582937e+00
  5.06821225e+00  5.07229257e+00  5.08309333e+00  5.08612037e+00
  5.09324818e+00  5.10097403e+00  5.11332659e+00  5.11558795e+00
  5.12776433e+00  5.13869685e+00  5.14689293e+00  5.16752780e+00
  5.17777273e+00  5.19185077e+00  5.21396598e+00  5.22858966e+00
  5.23570639e+00  5.23899321e+00  5.25025294e+00  5.26444468e+00
  5.27231005e+00  5.27955708e+00  5.29437366e+00  5.30947681e+00
  5.32762078e+00  5.34075643e+00  5.34865024e+00  5.36248792e+00
  5.37268803e+00  5.38524233e+00  5.40590156e+00  5.41647691e+00
  5.43833293e+00  5.44398530e+00  5.44554479e+00  5.45794212e+00
  5.47875146e+00  5.48769185e+00  5.51231961e+00  5.52336570e+00
  5.54000305e+00  5.54982301e+00  5.56029009e+00  5.57720805e+00
  5.58980253e+00  5.62242551e+00  5.64443156e+00  5.64472468e+00
  5.69628622e+00  5.70984849e+00  5.71586743e+00  5.74014160e+00
  5.78690094e+00  5.79050136e+00  5.83143394e+00  5.85030618e+00
  5.85428584e+00  5.88415539e+00  5.88779401e+00  5.90736617e+00
  5.93683164e+00  5.99681726e+00  6.01935065e+00  6.05664295e+00
  6.07977569e+00  6.09781142e+00  6.12522698e+00  6.18506630e+00
  6.29312095e+00  6.29420251e+00  6.32626383e+00  6.40377870e+00
  6.47876020e+00  6.67629189e+00  6.72181674e+00  6.81159242e+00
  7.01607073e+00  7.27234990e+00  2.23723470e+01  2.23841522e+01
  2.24077743e+01  2.25365964e+01  2.25713130e+01  2.26485241e+01
  2.26596319e+01  2.26663098e+01  2.26692295e+01  2.26835359e+01
  2.27019611e+01  2.28459711e+01  2.29654818e+01  2.29756676e+01
  2.30428184e+01  2.31292147e+01  2.32002146e+01  2.32236918e+01
  2.33541955e+01  2.34173001e+01  2.35660799e+01  2.36617434e+01
  3.21612906e+01  3.22664308e+01  3.24788008e+01  3.26585033e+01
  3.27592788e+01  3.28789097e+01  3.32259075e+01  4.41330853e+01]
nelec by numeric integration = 215.99995864472444
    CPU time for vxc    168.24 sec, wall time      9.37 sec
    CPU time for df vj and vk    648.01 sec, wall time     43.08 sec
E1 = -7673.384792156832  Ecoul = 3583.9613970042233  Exc = -185.0358384280295
cycle= 1 E= -1312.05584630218  delta_E= 9.82e-11  |g|= 2.35e-05  |ddm|= 3.59e-05
    CPU time for cycle= 1    823.41 sec, wall time     53.21 sec
  HOMO = -0.207082296288524  LUMO = -0.0519897529086296
  mo_energy =
[-1.92727895e+01 -1.44800572e+01 -1.44415569e+01 -1.43852607e+01
 -1.43832875e+01 -1.43813225e+01 -1.43701946e+01 -1.43295945e+01
 -1.03273336e+01 -1.03026342e+01 -1.02924312e+01 -1.02818499e+01
 -1.02812347e+01 -1.02783715e+01 -1.02713781e+01 -1.02673265e+01
 -1.02644244e+01 -1.02527337e+01 -1.02449166e+01 -1.02360954e+01
 -1.02328118e+01 -1.02314539e+01 -1.02309591e+01 -1.02294732e+01
 -1.02258202e+01 -1.02231054e+01 -1.02204020e+01 -1.02185985e+01
 -1.02167200e+01 -1.02104966e+01 -1.13077050e+00 -1.06414455e+00
 -1.01455950e+00 -9.84662430e-01 -9.68451073e-01 -9.34683544e-01
 -8.79915367e-01 -8.75666128e-01 -8.62981064e-01 -8.52520531e-01
 -8.34354308e-01 -7.97193187e-01 -7.89631257e-01 -7.72728192e-01
 -7.61135448e-01 -7.57708298e-01 -7.40287775e-01 -7.10752528e-01
 -6.86527267e-01 -6.74262138e-01 -6.53790215e-01 -6.52121240e-01
 -6.43515827e-01 -6.22646756e-01 -6.12235223e-01 -6.05043192e-01
 -5.92156169e-01 -5.74131964e-01 -5.65763215e-01 -5.51893987e-01
 -5.44727572e-01 -5.37329784e-01 -5.18224937e-01 -5.14263707e-01
 -5.09440810e-01 -5.01422491e-01 -4.92657044e-01 -4.88285897e-01
 -4.78687412e-01 -4.75767268e-01 -4.65434885e-01 -4.62330295e-01
 -4.57658916e-01 -4.52468078e-01 -4.48477131e-01 -4.46885692e-01
 -4.43539459e-01 -4.40160401e-01 -4.37673589e-01 -4.33536537e-01
 -4.19878746e-01 -4.13108835e-01 -4.08224288e-01 -4.04182988e-01
 -4.00395958e-01 -3.90950305e-01 -3.82103228e-01 -3.75994108e-01
 -3.67460584e-01 -3.64761133e-01 -3.63555775e-01 -3.58357700e-01
 -3.52327959e-01 -3.51677410e-01 -3.51205520e-01 -3.45815492e-01
 -3.40756935e-01 -3.30832768e-01 -3.04164465e-01 -3.01178701e-01
 -2.82278139e-01 -2.74634655e-01 -2.58213452e-01 -2.45565098e-01
 -2.39717454e-01 -2.28972221e-01 -2.24780693e-01 -2.07082296e-01
 -5.19897529e-02 -3.18048540e-02 -7.15183443e-03  1.00861792e-03
  1.93833317e-02  3.23056265e-02  3.53603960e-02  4.78065430e-02
  4.88421218e-02  5.56637722e-02  5.83416606e-02  6.25207225e-02
  6.70562321e-02  6.85944312e-02  7.66627460e-02  8.13781058e-02
  8.43539217e-02  8.86259276e-02  9.41124613e-02  1.02883527e-01
  1.07067084e-01  1.10301154e-01  1.14990053e-01  1.16699841e-01
  1.20411326e-01  1.23361703e-01  1.27197672e-01  1.31395141e-01
  1.35068063e-01  1.38502919e-01  1.40428384e-01  1.42205397e-01
  1.47703943e-01  1.50105574e-01  1.55888071e-01  1.61294987e-01
  1.64931042e-01  1.71448549e-01  1.72413239e-01  1.75592607e-01
  1.78945322e-01  1.82455557e-01  1.86501700e-01  1.87539590e-01
  1.91851591e-01  1.93203733e-01  1.95082734e-01  2.01929433e-01
  2.04058834e-01  2.05697943e-01  2.09816730e-01  2.17376975e-01
  2.19220319e-01  2.25285785e-01  2.26828949e-01  2.30065753e-01
  2.32016376e-01  2.33251704e-01  2.38516961e-01  2.40118310e-01
  2.45995613e-01  2.47755453e-01  2.50169840e-01  2.54349127e-01
  2.60491367e-01  2.63000485e-01  2.65742703e-01  2.67175357e-01
  2.70732501e-01  2.75679301e-01  2.77985499e-01  2.81154484e-01
  2.84741146e-01  2.89920061e-01  2.92331012e-01  2.97462826e-01
  3.01720379e-01  3.05073181e-01  3.12059414e-01  3.13997410e-01
  3.16193107e-01  3.22302050e-01  3.23799598e-01  3.27502531e-01
  3.32799059e-01  3.34223944e-01  3.40099649e-01  3.46013966e-01
  3.48367926e-01  3.50944866e-01  3.60132267e-01  3.62371729e-01
  3.63700839e-01  3.65006557e-01  3.68716384e-01  3.72177006e-01
  3.74328955e-01  3.77701445e-01  3.81468721e-01  3.83290759e-01
  3.89859853e-01  3.92002107e-01  3.96929174e-01  3.99515429e-01
  4.01568463e-01  4.08082278e-01  4.10081887e-01  4.13821990e-01
  4.14262597e-01  4.16042426e-01  4.20778193e-01  4.26401192e-01
  4.29101453e-01  4.32109502e-01  4.33242005e-01  4.36700136e-01
  4.39336955e-01  4.40652672e-01  4.43017775e-01  4.45279553e-01
  4.48775879e-01  4.51702964e-01  4.53384825e-01  4.55144372e-01
  4.57292007e-01  4.59320505e-01  4.62652987e-01  4.65104406e-01
  4.66374474e-01  4.68217850e-01  4.72450551e-01  4.74335472e-01
  4.77522801e-01  4.79202466e-01  4.80602770e-01  4.85955506e-01
  4.90291295e-01  4.97494640e-01  5.04275012e-01  5.05337293e-01
  5.09172335e-01  5.12342278e-01  5.20214583e-01  5.21057668e-01
  5.26298580e-01  5.29374123e-01  5.33388507e-01  5.35051100e-01
  5.38523994e-01  5.42245864e-01  5.49336268e-01  5.51402615e-01
  5.55453409e-01  5.62289369e-01  5.64012318e-01  5.67222064e-01
  5.70716346e-01  5.74964388e-01  5.82774788e-01  5.85559606e-01
  5.90293320e-01  5.97008834e-01  6.01546134e-01  6.05907198e-01
  6.09399323e-01  6.13378880e-01  6.20823707e-01  6.21022903e-01
  6.23436613e-01  6.25395328e-01  6.29203564e-01  6.35356045e-01
  6.36717643e-01  6.43606448e-01  6.44330046e-01  6.46435023e-01
  6.56851185e-01  6.59860375e-01  6.64427989e-01  6.70976970e-01
  6.76935563e-01  6.78030880e-01  6.83100653e-01  6.87105903e-01
  6.88224029e-01  6.96541105e-01  6.99334343e-01  7.02935036e-01
  7.08159656e-01  7.18228057e-01  7.18835348e-01  7.24526400e-01
  7.30257763e-01  7.33051149e-01  7.39086943e-01  7.42952973e-01
  7.47903581e-01  7.49376080e-01  7.53834150e-01  7.60287315e-01
  7.63396192e-01  7.65948881e-01  7.71419931e-01  7.73502326e-01
  7.81480795e-01  7.86493410e-01  7.87539604e-01  7.94411064e-01
  7.99887865e-01  8.01371917e-01  8.09648050e-01  8.11137866e-01
  8.13173262e-01  8.20915008e-01  8.23175047e-01  8.28906052e-01
  8.39605548e-01  8.43069152e-01  8.45990312e-01  8.50397055e-01
  8.56508113e-01  8.60813569e-01  8.64030559e-01  8.67284053e-01
  8.70176112e-01  8.79385811e-01  8.81229636e-01  8.87455657e-01
  8.90456101e-01  8.94657486e-01  9.01845221e-01  9.02801300e-01
  9.14643407e-01  9.18657841e-01  9.25909803e-01  9.35630277e-01
  9.41068719e-01  9.46497635e-01  9.53246187e-01  9.54770637e-01
  9.62788308e-01  9.65239411e-01  9.69610234e-01  9.76121660e-01
  9.80169580e-01  9.87519414e-01  9.96476597e-01  1.00256449e+00
  1.00999173e+00  1.01315911e+00  1.01791482e+00  1.02780755e+00
  1.03084242e+00  1.03979863e+00  1.04875206e+00  1.05342256e+00
  1.05705528e+00  1.06323656e+00  1.06793653e+00  1.07176878e+00
  1.07669625e+00  1.08499119e+00  1.09760786e+00  1.10054839e+00
  1.10943337e+00  1.11015314e+00  1.11337772e+00  1.11601636e+00
  1.12740847e+00  1.13382297e+00  1.14384020e+00  1.14995135e+00
  1.15263218e+00  1.16046176e+00  1.16671498e+00  1.17159012e+00
  1.17823337e+00  1.18798742e+00  1.19064595e+00  1.19391937e+00
  1.20110726e+00  1.20905027e+00  1.21667752e+00  1.21979231e+00
  1.22294406e+00  1.22740643e+00  1.23174270e+00  1.24283441e+00
  1.24548010e+00  1.25080370e+00  1.25623830e+00  1.25946713e+00
  1.26726824e+00  1.27339656e+00  1.27656237e+00  1.28226291e+00
  1.29304256e+00  1.29921729e+00  1.30848777e+00  1.31330196e+00
  1.32115486e+00  1.32641565e+00  1.33052433e+00  1.34026039e+00
  1.34680258e+00  1.34886325e+00  1.36279978e+00  1.36870055e+00
  1.37400229e+00  1.37820761e+00  1.38307247e+00  1.39236308e+00
  1.39367554e+00  1.40645230e+00  1.40860623e+00  1.41052091e+00
  1.41821902e+00  1.42206516e+00  1.42329560e+00  1.43000780e+00
  1.44255865e+00  1.44471171e+00  1.45153877e+00  1.45853316e+00
  1.46282926e+00  1.46677552e+00  1.47577591e+00  1.47757097e+00
  1.48494331e+00  1.49345327e+00  1.49811583e+00  1.50601146e+00
  1.51069972e+00  1.51466565e+00  1.51796682e+00  1.52211848e+00
  1.52384799e+00  1.53001807e+00  1.53770069e+00  1.53972040e+00
  1.54276554e+00  1.55835905e+00  1.56514455e+00  1.56749280e+00
  1.58045728e+00  1.58364166e+00  1.58622504e+00  1.58834254e+00
  1.58932151e+00  1.59070894e+00  1.59754759e+00  1.59885668e+00
  1.60640164e+00  1.60776228e+00  1.61473205e+00  1.61653763e+00
  1.61777448e+00  1.62810120e+00  1.62899096e+00  1.63894189e+00
  1.64243730e+00  1.64867164e+00  1.65315012e+00  1.65794512e+00
  1.66210223e+00  1.66698742e+00  1.66774109e+00  1.67802594e+00
  1.68241484e+00  1.68628955e+00  1.68829152e+00  1.69217279e+00
  1.69889059e+00  1.70385843e+00  1.71026656e+00  1.71142226e+00
  1.71914762e+00  1.72216685e+00  1.72988464e+00  1.73349772e+00
  1.74242705e+00  1.74987604e+00  1.75560992e+00  1.76025999e+00
  1.76093219e+00  1.76568971e+00  1.77869602e+00  1.78489782e+00
  1.78945727e+00  1.79118114e+00  1.79737375e+00  1.80607804e+00
  1.80872748e+00  1.81256184e+00  1.81898678e+00  1.82956701e+00
  1.83156226e+00  1.83440128e+00  1.84111490e+00  1.85119311e+00
  1.85591398e+00  1.86680102e+00  1.86896065e+00  1.87303079e+00
  1.88203277e+00  1.88456793e+00  1.89091361e+00  1.90243171e+00
  1.90790372e+00  1.91384964e+00  1.92186592e+00  1.93029287e+00
  1.93417855e+00  1.94631992e+00  1.95560514e+00  1.96221208e+00
  1.96629076e+00  1.96739760e+00  1.97079506e+00  1.97565491e+00
  1.98131849e+00  1.99188982e+00  1.99869651e+00  2.00312724e+00
  2.00594720e+00  2.01231223e+00  2.01465745e+00  2.01948460e+00
  2.02721700e+00  2.03279368e+00  2.04037603e+00  2.04296810e+00
  2.04884397e+00  2.05183976e+00  2.05624222e+00  2.05890269e+00
  2.06944165e+00  2.07770712e+00  2.08237050e+00  2.08251738e+00
  2.09149397e+00  2.09943573e+00  2.11039051e+00  2.11483962e+00
  2.12540708e+00  2.13579753e+00  2.13758097e+00  2.14727463e+00
  2.15523131e+00  2.16684899e+00  2.17345679e+00  2.17619613e+00
  2.18122307e+00  2.19156097e+00  2.19806368e+00  2.20144201e+00
  2.20320207e+00  2.20963993e+00  2.22202707e+00  2.22287612e+00
  2.22710118e+00  2.24098597e+00  2.24208288e+00  2.24664065e+00
  2.24987199e+00  2.27244945e+00  2.27579094e+00  2.28425850e+00
  2.28908318e+00  2.30014451e+00  2.30429646e+00  2.31021361e+00
  2.31450647e+00  2.32190277e+00  2.32362339e+00  2.32679983e+00
  2.33756395e+00  2.33792490e+00  2.34459798e+00  2.34990109e+00
  2.35511407e+00  2.35984253e+00  2.36969000e+00  2.37361352e+00
  2.37804775e+00  2.39311823e+00  2.40029687e+00  2.40408897e+00
  2.41188064e+00  2.41717998e+00  2.41977385e+00  2.42756299e+00
  2.43977687e+00  2.44183195e+00  2.44644221e+00  2.45152351e+00
  2.45502576e+00  2.47045009e+00  2.47590183e+00  2.47949040e+00
  2.48902187e+00  2.49089741e+00  2.49416123e+00  2.50373534e+00
  2.51070259e+00  2.51886965e+00  2.52321469e+00  2.52507419e+00
  2.53341975e+00  2.54083461e+00  2.54518689e+00  2.55089110e+00
  2.56282642e+00  2.57039474e+00  2.57370203e+00  2.58604198e+00
  2.58740407e+00  2.58816856e+00  2.59038644e+00  2.59605559e+00
  2.60215021e+00  2.60683694e+00  2.61495511e+00  2.61702294e+00
  2.62448886e+00  2.62843688e+00  2.63235883e+00  2.63456726e+00
  2.64334928e+00  2.64824219e+00  2.65277201e+00  2.66173926e+00
  2.66482517e+00  2.66938500e+00  2.67392846e+00  2.67667373e+00
  2.68298058e+00  2.68356007e+00  2.69087109e+00  2.69361745e+00
  2.70091691e+00  2.70325647e+00  2.71024129e+00  2.71076129e+00
  2.71404759e+00  2.71858716e+00  2.72431630e+00  2.72526767e+00
  2.73522367e+00  2.73757348e+00  2.74650510e+00  2.75108756e+00
  2.75470811e+00  2.76104479e+00  2.76789550e+00  2.76928998e+00
  2.77085667e+00  2.77968116e+00  2.78324441e+00  2.79159778e+00
  2.79627515e+00  2.80006374e+00  2.80925730e+00  2.81676808e+00
  2.81790114e+00  2.82248449e+00  2.83068323e+00  2.83457283e+00
  2.84626933e+00  2.84844107e+00  2.85480832e+00  2.86038079e+00
  2.87301709e+00  2.88306533e+00  2.88791822e+00  2.89726737e+00
  2.89992637e+00  2.90557661e+00  2.91496846e+00  2.91897670e+00
  2.92796628e+00  2.93660061e+00  2.94014136e+00  2.94642107e+00
  2.95122609e+00  2.95590512e+00  2.96216507e+00  2.96544999e+00
  2.97181761e+00  2.98248791e+00  2.98423319e+00  2.98750294e+00
  2.99275699e+00  3.00819178e+00  3.01031485e+00  3.01733906e+00
  3.02211797e+00  3.02506333e+00  3.03030187e+00  3.04250363e+00
  3.04510669e+00  3.04700964e+00  3.04955828e+00  3.06644901e+00
  3.06834171e+00  3.07270043e+00  3.07516731e+00  3.08328307e+00
  3.09360096e+00  3.09544015e+00  3.10285201e+00  3.10969320e+00
  3.11069483e+00  3.11710441e+00  3.11933202e+00  3.12154940e+00
  3.12611785e+00  3.12964295e+00  3.13559517e+00  3.13838616e+00
  3.14640232e+00  3.15308542e+00  3.15821173e+00  3.16080866e+00
  3.16899990e+00  3.17480439e+00  3.17695640e+00  3.18094229e+00
  3.18345925e+00  3.19051194e+00  3.19534301e+00  3.19618793e+00
  3.19958025e+00  3.20458984e+00  3.20723761e+00  3.21146075e+00
  3.21466650e+00  3.21766283e+00  3.23015426e+00  3.23480786e+00
  3.23903278e+00  3.24178931e+00  3.24577083e+00  3.24698912e+00
  3.25361061e+00  3.26323526e+00  3.26699530e+00  3.26889616e+00
  3.27699452e+00  3.27903985e+00  3.28836628e+00  3.28860619e+00
  3.29453279e+00  3.30163883e+00  3.30236288e+00  3.30675794e+00
  3.31224129e+00  3.31469026e+00  3.31764935e+00  3.32442180e+00
  3.32855519e+00  3.33236531e+00  3.33844577e+00  3.34233871e+00
  3.34888896e+00  3.34990436e+00  3.35465354e+00  3.36071224e+00
  3.36549051e+00  3.37527937e+00  3.37749415e+00  3.38022361e+00
  3.38929699e+00  3.39294787e+00  3.39411911e+00  3.39761263e+00
  3.41022202e+00  3.41330700e+00  3.42081985e+00  3.42482885e+00
  3.43186484e+00  3.43507643e+00  3.43860517e+00  3.44273718e+00
  3.44841928e+00  3.45277619e+00  3.45690569e+00  3.46198776e+00
  3.46873859e+00  3.47291842e+00  3.47813124e+00  3.47848584e+00
  3.48909927e+00  3.49226706e+00  3.49891391e+00  3.50965788e+00
  3.51326014e+00  3.51601405e+00  3.52066424e+00  3.52885694e+00
  3.53237501e+00  3.53678157e+00  3.54193761e+00  3.54350904e+00
  3.55016361e+00  3.55771096e+00  3.56241342e+00  3.56599992e+00
  3.56943731e+00  3.57396931e+00  3.58058798e+00  3.59350255e+00
  3.59602626e+00  3.60171951e+00  3.60527681e+00  3.61225633e+00
  3.62297787e+00  3.62567394e+00  3.63429497e+00  3.63646613e+00
  3.65284784e+00  3.66448171e+00  3.67615477e+00  3.68357642e+00
  3.68893307e+00  3.68945155e+00  3.69311241e+00  3.70115230e+00
  3.71337748e+00  3.71989007e+00  3.73135743e+00  3.74210183e+00
  3.74981348e+00  3.75871975e+00  3.77079230e+00  3.77438297e+00
  3.78206007e+00  3.78876298e+00  3.80276990e+00  3.81835618e+00
  3.82426342e+00  3.83696910e+00  3.84045957e+00  3.84783559e+00
  3.85489959e+00  3.86600259e+00  3.87118129e+00  3.88468616e+00
  3.89152441e+00  3.90192509e+00  3.90689712e+00  3.91149245e+00
  3.91902123e+00  3.92486865e+00  3.93674481e+00  3.93866053e+00
  3.94758510e+00  3.96071033e+00  3.97298894e+00  3.97452313e+00
  3.98281489e+00  3.99298528e+00  3.99580176e+00  4.00140700e+00
  4.00935155e+00  4.02326874e+00  4.02894934e+00  4.03807932e+00
  4.04006100e+00  4.04715905e+00  4.05542903e+00  4.06951980e+00
  4.07751794e+00  4.08902791e+00  4.09200715e+00  4.10184944e+00
  4.11226391e+00  4.11509543e+00  4.11775344e+00  4.12793638e+00
  4.13516786e+00  4.14716296e+00  4.15338113e+00  4.16560319e+00
  4.16908996e+00  4.16989622e+00  4.17691443e+00  4.18592436e+00
  4.20483001e+00  4.20808180e+00  4.21358062e+00  4.22303185e+00
  4.23172109e+00  4.24245690e+00  4.26453486e+00  4.26634072e+00
  4.28187020e+00  4.28652833e+00  4.29463959e+00  4.30436010e+00
  4.30939534e+00  4.31628598e+00  4.33087207e+00  4.33944605e+00
  4.35138573e+00  4.35252002e+00  4.36137125e+00  4.36628094e+00
  4.37335062e+00  4.38046451e+00  4.40120514e+00  4.41093647e+00
  4.42250726e+00  4.42505795e+00  4.43435157e+00  4.43978659e+00
  4.45309756e+00  4.46710150e+00  4.47387819e+00  4.47626614e+00
  4.48322492e+00  4.49840042e+00  4.52229527e+00  4.54400914e+00
  4.56964795e+00  4.57775663e+00  4.59060664e+00  4.59701580e+00
  4.59949420e+00  4.60858776e+00  4.62460108e+00  4.63734969e+00
  4.64326316e+00  4.65608008e+00  4.67698945e+00  4.68346844e+00
  4.68951433e+00  4.69607204e+00  4.71826562e+00  4.72169850e+00
  4.72875839e+00  4.74617357e+00  4.75496193e+00  4.75851100e+00
  4.76750113e+00  4.77307022e+00  4.78189973e+00  4.79142875e+00
  4.79485446e+00  4.80062385e+00  4.81136194e+00  4.81459348e+00
  4.82367323e+00  4.83964620e+00  4.85240822e+00  4.85764592e+00
  4.86965935e+00  4.88502954e+00  4.88599373e+00  4.89408850e+00
  4.90478543e+00  4.90818393e+00  4.93585482e+00  4.94882256e+00
  4.96540089e+00  4.97844044e+00  4.98530036e+00  4.98589348e+00
  4.99647681e+00  5.00089116e+00  5.01658413e+00  5.02450309e+00
  5.02626156e+00  5.03613197e+00  5.04002055e+00  5.05582936e+00
  5.06821059e+00  5.07229141e+00  5.08309341e+00  5.08611971e+00
  5.09324757e+00  5.10097278e+00  5.11332534e+00  5.11558604e+00
  5.12776391e+00  5.13869558e+00  5.14689156e+00  5.16752693e+00
  5.17777259e+00  5.19184945e+00  5.21396580e+00  5.22858902e+00
  5.23570590e+00  5.23899195e+00  5.25025177e+00  5.26444442e+00
  5.27230982e+00  5.27955734e+00  5.29437384e+00  5.30947587e+00
  5.32762012e+00  5.34075505e+00  5.34865009e+00  5.36248637e+00
  5.37268661e+00  5.38524179e+00  5.40590015e+00  5.41647694e+00
  5.43833246e+00  5.44398487e+00  5.44554425e+00  5.45794040e+00
  5.47875019e+00  5.48769108e+00  5.51231825e+00  5.52336415e+00
  5.54000243e+00  5.54982265e+00  5.56028956e+00  5.57720805e+00
  5.58980046e+00  5.62242351e+00  5.64443047e+00  5.64472338e+00
  5.69628398e+00  5.70984719e+00  5.71586608e+00  5.74014014e+00
  5.78689921e+00  5.79049952e+00  5.83143393e+00  5.85030421e+00
  5.85428602e+00  5.88415554e+00  5.88779473e+00  5.90736472e+00
  5.93682965e+00  5.99681583e+00  6.01934924e+00  6.05664243e+00
  6.07977538e+00  6.09780938e+00  6.12522556e+00  6.18506440e+00
  6.29311919e+00  6.29420087e+00  6.32626530e+00  6.40377846e+00
  6.47876096e+00  6.67629150e+00  6.72181876e+00  6.81159420e+00
  7.01607283e+00  7.27235162e+00  2.23723479e+01  2.23841551e+01
  2.24077758e+01  2.25365985e+01  2.25713113e+01  2.26485263e+01
  2.26596315e+01  2.26663069e+01  2.26692265e+01  2.26835366e+01
  2.27019642e+01  2.28459684e+01  2.29654819e+01  2.29756670e+01
  2.30428150e+01  2.31292117e+01  2.32002164e+01  2.32236876e+01
  2.33541975e+01  2.34172978e+01  2.35660772e+01  2.36617396e+01
  3.21612967e+01  3.22664355e+01  3.24787967e+01  3.26585052e+01
  3.27592701e+01  3.28789096e+01  3.32259014e+01  4.41330891e+01]
nelec by numeric integration = 215.99995864486965
    CPU time for vxc    178.90 sec, wall time      9.70 sec
    CPU time for df vj and vk    641.00 sec, wall time     42.08 sec
E1 = -7673.385000859259  Ecoul = 3583.961603285779  Exc = -185.03583600675512
cycle= 2 E= -1312.05584630178  delta_E= 4.03e-10  |g|= 4.72e-05  |ddm|= 7.32e-05
    CPU time for cycle= 2    826.97 sec, wall time     52.57 sec
  HOMO = -0.207081497443856  LUMO = -0.0519884358753525
  mo_energy =
[-1.92727918e+01 -1.44800524e+01 -1.44415542e+01 -1.43852648e+01
 -1.43832872e+01 -1.43813260e+01 -1.43701985e+01 -1.43295858e+01
 -1.03273345e+01 -1.03026359e+01 -1.02924268e+01 -1.02818453e+01
 -1.02812337e+01 -1.02783688e+01 -1.02713759e+01 -1.02673310e+01
 -1.02644224e+01 -1.02527362e+01 -1.02449180e+01 -1.02360939e+01
 -1.02328129e+01 -1.02314564e+01 -1.02309554e+01 -1.02294703e+01
 -1.02258252e+01 -1.02231060e+01 -1.02203990e+01 -1.02186010e+01
 -1.02167182e+01 -1.02104953e+01 -1.13077132e+00 -1.06414327e+00
 -1.01455765e+00 -9.84662870e-01 -9.68450036e-01 -9.34682933e-01
 -8.79916843e-01 -8.75664395e-01 -8.62981056e-01 -8.52521441e-01
 -8.34353395e-01 -7.97191867e-01 -7.89630630e-01 -7.72727626e-01
 -7.61135558e-01 -7.57708137e-01 -7.40287312e-01 -7.10751260e-01
 -6.86526912e-01 -6.74261625e-01 -6.53789532e-01 -6.52121570e-01
 -6.43515551e-01 -6.22646851e-01 -6.12234940e-01 -6.05043262e-01
 -5.92155759e-01 -5.74131486e-01 -5.65762593e-01 -5.51893665e-01
 -5.44727033e-01 -5.37330237e-01 -5.18224256e-01 -5.14263977e-01
 -5.09440115e-01 -5.01422024e-01 -4.92657580e-01 -4.88285744e-01
 -4.78687221e-01 -4.75766383e-01 -4.65434637e-01 -4.62329907e-01
 -4.57659039e-01 -4.52467842e-01 -4.48477813e-01 -4.46884726e-01
 -4.43539880e-01 -4.40160220e-01 -4.37673841e-01 -4.33536395e-01
 -4.19878412e-01 -4.13108048e-01 -4.08224018e-01 -4.04181518e-01
 -4.00396772e-01 -3.90949963e-01 -3.82104119e-01 -3.75993922e-01
 -3.67460946e-01 -3.64761096e-01 -3.63555785e-01 -3.58358048e-01
 -3.52328635e-01 -3.51677346e-01 -3.51205597e-01 -3.45814307e-01
 -3.40755771e-01 -3.30832176e-01 -3.04165139e-01 -3.01178152e-01
 -2.82279335e-01 -2.74633463e-01 -2.58212997e-01 -2.45562505e-01
 -2.39717212e-01 -2.28972191e-01 -2.24779229e-01 -2.07081497e-01
 -5.19884359e-02 -3.18040478e-02 -7.15154465e-03  1.00808572e-03
  1.93834727e-02  3.23060776e-02  3.53602219e-02  4.78061360e-02
  4.88419090e-02  5.56637565e-02  5.83415058e-02  6.25211240e-02
  6.70560049e-02  6.85951768e-02  7.66625988e-02  8.13781110e-02
  8.43543674e-02  8.86256401e-02  9.41125733e-02  1.02883885e-01
  1.07066887e-01  1.10301103e-01  1.14990155e-01  1.16700000e-01
  1.20411557e-01  1.23361235e-01  1.27197958e-01  1.31395703e-01
  1.35068152e-01  1.38503019e-01  1.40428291e-01  1.42205344e-01
  1.47704424e-01  1.50106115e-01  1.55888032e-01  1.61295115e-01
  1.64931675e-01  1.71448543e-01  1.72413364e-01  1.75592635e-01
  1.78945824e-01  1.82455722e-01  1.86502083e-01  1.87539643e-01
  1.91851810e-01  1.93203827e-01  1.95083173e-01  2.01929755e-01
  2.04059174e-01  2.05698334e-01  2.09817301e-01  2.17377547e-01
  2.19220654e-01  2.25285676e-01  2.26829206e-01  2.30065888e-01
  2.32016385e-01  2.33252018e-01  2.38516844e-01  2.40118354e-01
  2.45995470e-01  2.47755514e-01  2.50169996e-01  2.54349143e-01
  2.60491854e-01  2.63000747e-01  2.65742968e-01  2.67175362e-01
  2.70732834e-01  2.75679693e-01  2.77985562e-01  2.81154598e-01
  2.84741285e-01  2.89920441e-01  2.92331237e-01  2.97463255e-01
  3.01720327e-01  3.05073728e-01  3.12059537e-01  3.13997657e-01
  3.16193348e-01  3.22301915e-01  3.23799883e-01  3.27502974e-01
  3.32799516e-01  3.34224138e-01  3.40099830e-01  3.46014262e-01
  3.48367937e-01  3.50945371e-01  3.60132626e-01  3.62371843e-01
  3.63701338e-01  3.65006610e-01  3.68716596e-01  3.72176860e-01
  3.74329081e-01  3.77701683e-01  3.81468734e-01  3.83291062e-01
  3.89860162e-01  3.92002617e-01  3.96929388e-01  3.99515107e-01
  4.01568583e-01  4.08082654e-01  4.10082212e-01  4.13822289e-01
  4.14262844e-01  4.16042381e-01  4.20778444e-01  4.26401115e-01
  4.29101531e-01  4.32109680e-01  4.33242051e-01  4.36699917e-01
  4.39336918e-01  4.40652853e-01  4.43017648e-01  4.45279920e-01
  4.48776160e-01  4.51703392e-01  4.53385002e-01  4.55144244e-01
  4.57292158e-01  4.59320377e-01  4.62653256e-01  4.65104226e-01
  4.66374360e-01  4.68217948e-01  4.72450899e-01  4.74335914e-01
  4.77523219e-01  4.79202767e-01  4.80603134e-01  4.85955883e-01
  4.90291424e-01  4.97494828e-01  5.04275080e-01  5.05337636e-01
  5.09172315e-01  5.12342283e-01  5.20214707e-01  5.21057667e-01
  5.26298865e-01  5.29374086e-01  5.33388654e-01  5.35051327e-01
  5.38524202e-01  5.42246307e-01  5.49336394e-01  5.51402916e-01
  5.55453968e-01  5.62289577e-01  5.64012367e-01  5.67222436e-01
  5.70716653e-01  5.74964664e-01  5.82775227e-01  5.85559937e-01
  5.90293466e-01  5.97008967e-01  6.01546466e-01  6.05907342e-01
  6.09399967e-01  6.13379065e-01  6.20823957e-01  6.21023512e-01
  6.23437039e-01  6.25395955e-01  6.29204145e-01  6.35356698e-01
  6.36718075e-01  6.43607057e-01  6.44330210e-01  6.46435033e-01
  6.56851662e-01  6.59861113e-01  6.64428138e-01  6.70977160e-01
  6.76936095e-01  6.78030973e-01  6.83100723e-01  6.87106375e-01
  6.88224552e-01  6.96541340e-01  6.99334543e-01  7.02935304e-01
  7.08159746e-01  7.18228078e-01  7.18835662e-01  7.24526617e-01
  7.30258250e-01  7.33051439e-01  7.39087081e-01  7.42953211e-01
  7.47904051e-01  7.49376367e-01  7.53834415e-01  7.60287810e-01
  7.63396412e-01  7.65949462e-01  7.71420325e-01  7.73502745e-01
  7.81481425e-01  7.86493618e-01  7.87539869e-01  7.94411405e-01
  7.99888274e-01  8.01372203e-01  8.09648257e-01  8.11138333e-01
  8.13173900e-01  8.20915445e-01  8.23175160e-01  8.28906312e-01
  8.39605714e-01  8.43069517e-01  8.45990615e-01  8.50397540e-01
  8.56508571e-01  8.60814067e-01  8.64030629e-01  8.67284246e-01
  8.70175988e-01  8.79385920e-01  8.81229999e-01  8.87456118e-01
  8.90456287e-01  8.94657450e-01  9.01845453e-01  9.02801308e-01
  9.14643740e-01  9.18658324e-01  9.25910113e-01  9.35630450e-01
  9.41069059e-01  9.46497558e-01  9.53246457e-01  9.54770664e-01
  9.62788615e-01  9.65239840e-01  9.69610673e-01  9.76121873e-01
  9.80170503e-01  9.87520078e-01  9.96476738e-01  1.00256479e+00
  1.00999190e+00  1.01315947e+00  1.01791505e+00  1.02780743e+00
  1.03084240e+00  1.03979916e+00  1.04875235e+00  1.05342341e+00
  1.05705537e+00  1.06323682e+00  1.06793672e+00  1.07176868e+00
  1.07669665e+00  1.08499120e+00  1.09760805e+00  1.10054880e+00
  1.10943353e+00  1.11015334e+00  1.11337774e+00  1.11601592e+00
  1.12740877e+00  1.13382336e+00  1.14384056e+00  1.14995153e+00
  1.15263219e+00  1.16046235e+00  1.16671519e+00  1.17158999e+00
  1.17823308e+00  1.18798738e+00  1.19064594e+00  1.19391943e+00
  1.20110706e+00  1.20905078e+00  1.21667760e+00  1.21979223e+00
  1.22294423e+00  1.22740684e+00  1.23174321e+00  1.24283455e+00
  1.24548063e+00  1.25080394e+00  1.25623835e+00  1.25946767e+00
  1.26726841e+00  1.27339702e+00  1.27656307e+00  1.28226326e+00
  1.29304314e+00  1.29921771e+00  1.30848741e+00  1.31330207e+00
  1.32115528e+00  1.32641608e+00  1.33052501e+00  1.34026056e+00
  1.34680306e+00  1.34886401e+00  1.36279988e+00  1.36870085e+00
  1.37400237e+00  1.37820776e+00  1.38307284e+00  1.39236379e+00
  1.39367561e+00  1.40645246e+00  1.40860646e+00  1.41052118e+00
  1.41821950e+00  1.42206583e+00  1.42329619e+00  1.43000749e+00
  1.44255869e+00  1.44471215e+00  1.45153859e+00  1.45853314e+00
  1.46282984e+00  1.46677570e+00  1.47577614e+00  1.47757151e+00
  1.48494379e+00  1.49345319e+00  1.49811601e+00  1.50601116e+00
  1.51070033e+00  1.51466589e+00  1.51796721e+00  1.52211876e+00
  1.52384812e+00  1.53001804e+00  1.53770078e+00  1.53972050e+00
  1.54276570e+00  1.55835935e+00  1.56514453e+00  1.56749293e+00
  1.58045813e+00  1.58364196e+00  1.58622495e+00  1.58834282e+00
  1.58932202e+00  1.59070927e+00  1.59754792e+00  1.59885692e+00
  1.60640179e+00  1.60776240e+00  1.61473226e+00  1.61653767e+00
  1.61777493e+00  1.62810126e+00  1.62899130e+00  1.63894234e+00
  1.64243758e+00  1.64867212e+00  1.65315075e+00  1.65794537e+00
  1.66210259e+00  1.66698773e+00  1.66774141e+00  1.67802652e+00
  1.68241510e+00  1.68628990e+00  1.68829134e+00  1.69217338e+00
  1.69889120e+00  1.70385816e+00  1.71026649e+00  1.71142258e+00
  1.71914771e+00  1.72216718e+00  1.72988457e+00  1.73349784e+00
  1.74242742e+00  1.74987640e+00  1.75560967e+00  1.76025954e+00
  1.76093257e+00  1.76569037e+00  1.77869609e+00  1.78489810e+00
  1.78945758e+00  1.79118102e+00  1.79737381e+00  1.80607830e+00
  1.80872794e+00  1.81256236e+00  1.81898690e+00  1.82956765e+00
  1.83156227e+00  1.83440147e+00  1.84111547e+00  1.85119373e+00
  1.85591417e+00  1.86680163e+00  1.86896065e+00  1.87303086e+00
  1.88203319e+00  1.88456806e+00  1.89091376e+00  1.90243208e+00
  1.90790457e+00  1.91384994e+00  1.92186625e+00  1.93029343e+00
  1.93417924e+00  1.94632008e+00  1.95560532e+00  1.96221261e+00
  1.96629096e+00  1.96739796e+00  1.97079527e+00  1.97565520e+00
  1.98131847e+00  1.99189017e+00  1.99869687e+00  2.00312743e+00
  2.00594678e+00  2.01231254e+00  2.01465775e+00  2.01948468e+00
  2.02721748e+00  2.03279392e+00  2.04037625e+00  2.04296851e+00
  2.04884447e+00  2.05183977e+00  2.05624208e+00  2.05890319e+00
  2.06944132e+00  2.07770726e+00  2.08237124e+00  2.08251798e+00
  2.09149443e+00  2.09943588e+00  2.11039060e+00  2.11484029e+00
  2.12540718e+00  2.13579779e+00  2.13758167e+00  2.14727488e+00
  2.15523127e+00  2.16684934e+00  2.17345734e+00  2.17619633e+00
  2.18122325e+00  2.19156152e+00  2.19806349e+00  2.20144234e+00
  2.20320188e+00  2.20963983e+00  2.22202730e+00  2.22287648e+00
  2.22710136e+00  2.24098590e+00  2.24208285e+00  2.24664098e+00
  2.24987167e+00  2.27244954e+00  2.27579045e+00  2.28425855e+00
  2.28908346e+00  2.30014434e+00  2.30429674e+00  2.31021383e+00
  2.31450649e+00  2.32190282e+00  2.32362376e+00  2.32680029e+00
  2.33756443e+00  2.33792566e+00  2.34459777e+00  2.34990134e+00
  2.35511392e+00  2.35984233e+00  2.36969038e+00  2.37361372e+00
  2.37804848e+00  2.39311838e+00  2.40029715e+00  2.40408915e+00
  2.41188066e+00  2.41717992e+00  2.41977385e+00  2.42756300e+00
  2.43977727e+00  2.44183234e+00  2.44644208e+00  2.45152403e+00
  2.45502631e+00  2.47044997e+00  2.47590228e+00  2.47949087e+00
  2.48902200e+00  2.49089779e+00  2.49416124e+00  2.50373520e+00
  2.51070284e+00  2.51887021e+00  2.52321512e+00  2.52507433e+00
  2.53342029e+00  2.54083462e+00  2.54518780e+00  2.55089136e+00
  2.56282625e+00  2.57039466e+00  2.57370220e+00  2.58604180e+00
  2.58740436e+00  2.58816873e+00  2.59038674e+00  2.59605576e+00
  2.60215041e+00  2.60683702e+00  2.61495533e+00  2.61702312e+00
  2.62448889e+00  2.62843734e+00  2.63235887e+00  2.63456713e+00
  2.64334984e+00  2.64824221e+00  2.65277224e+00  2.66173943e+00
  2.66482537e+00  2.66938534e+00  2.67392862e+00  2.67667360e+00
  2.68298125e+00  2.68356024e+00  2.69087187e+00  2.69361719e+00
  2.70091734e+00  2.70325671e+00  2.71024188e+00  2.71076160e+00
  2.71404810e+00  2.71858780e+00  2.72431626e+00  2.72526755e+00
  2.73522403e+00  2.73757364e+00  2.74650525e+00  2.75108796e+00
  2.75470888e+00  2.76104530e+00  2.76789586e+00  2.76929024e+00
  2.77085691e+00  2.77968103e+00  2.78324483e+00  2.79159803e+00
  2.79627538e+00  2.80006478e+00  2.80925715e+00  2.81676770e+00
  2.81790164e+00  2.82248473e+00  2.83068382e+00  2.83457295e+00
  2.84626978e+00  2.84844046e+00  2.85480871e+00  2.86038118e+00
  2.87301726e+00  2.88306566e+00  2.88791866e+00  2.89726814e+00
  2.89992677e+00  2.90557670e+00  2.91496851e+00  2.91897717e+00
  2.92796605e+00  2.93660065e+00  2.94014145e+00  2.94642129e+00
  2.95122662e+00  2.95590592e+00  2.96216563e+00  2.96545023e+00
  2.97181774e+00  2.98248818e+00  2.98423399e+00  2.98750349e+00
  2.99275742e+00  3.00819252e+00  3.01031568e+00  3.01734001e+00
  3.02211823e+00  3.02506422e+00  3.03030223e+00  3.04250451e+00
  3.04510718e+00  3.04701025e+00  3.04955878e+00  3.06644908e+00
  3.06834191e+00  3.07270066e+00  3.07516802e+00  3.08328351e+00
  3.09360141e+00  3.09544023e+00  3.10285200e+00  3.10969302e+00
  3.11069493e+00  3.11710450e+00  3.11933216e+00  3.12155046e+00
  3.12611811e+00  3.12964313e+00  3.13559562e+00  3.13838682e+00
  3.14640250e+00  3.15308552e+00  3.15821213e+00  3.16080895e+00
  3.16900005e+00  3.17480448e+00  3.17695652e+00  3.18094251e+00
  3.18345932e+00  3.19051201e+00  3.19534352e+00  3.19618812e+00
  3.19958014e+00  3.20458973e+00  3.20723820e+00  3.21146097e+00
  3.21466707e+00  3.21766337e+00  3.23015432e+00  3.23480829e+00
  3.23903314e+00  3.24178957e+00  3.24577115e+00  3.24698907e+00
  3.25361042e+00  3.26323577e+00  3.26699576e+00  3.26889651e+00
  3.27699458e+00  3.27903991e+00  3.28836604e+00  3.28860658e+00
  3.29453329e+00  3.30163937e+00  3.30236326e+00  3.30675819e+00
  3.31224144e+00  3.31469063e+00  3.31765019e+00  3.32442207e+00
  3.32855552e+00  3.33236581e+00  3.33844644e+00  3.34233940e+00
  3.34888897e+00  3.34990486e+00  3.35465392e+00  3.36071226e+00
  3.36549100e+00  3.37527938e+00  3.37749468e+00  3.38022442e+00
  3.38929722e+00  3.39294814e+00  3.39411944e+00  3.39761294e+00
  3.41022269e+00  3.41330775e+00  3.42082057e+00  3.42482952e+00
  3.43186532e+00  3.43507676e+00  3.43860553e+00  3.44273705e+00
  3.44841918e+00  3.45277646e+00  3.45690581e+00  3.46198828e+00
  3.46873869e+00  3.47291857e+00  3.47813174e+00  3.47848604e+00
  3.48909953e+00  3.49226715e+00  3.49891431e+00  3.50965832e+00
  3.51326019e+00  3.51601448e+00  3.52066466e+00  3.52885777e+00
  3.53237547e+00  3.53678187e+00  3.54193846e+00  3.54350959e+00
  3.55016382e+00  3.55771155e+00  3.56241365e+00  3.56600056e+00
  3.56943766e+00  3.57396986e+00  3.58058857e+00  3.59350319e+00
  3.59602686e+00  3.60171986e+00  3.60527715e+00  3.61225655e+00
  3.62297829e+00  3.62567414e+00  3.63429490e+00  3.63646652e+00
  3.65284835e+00  3.66448264e+00  3.67615504e+00  3.68357677e+00
  3.68893281e+00  3.68945183e+00  3.69311241e+00  3.70115266e+00
  3.71337804e+00  3.71989023e+00  3.73135760e+00  3.74210231e+00
  3.74981374e+00  3.75871982e+00  3.77079289e+00  3.77438249e+00
  3.78206103e+00  3.78876372e+00  3.80277048e+00  3.81835689e+00
  3.82426422e+00  3.83696935e+00  3.84045959e+00  3.84783650e+00
  3.85489988e+00  3.86600322e+00  3.87118156e+00  3.88468615e+00
  3.89152505e+00  3.90192545e+00  3.90689752e+00  3.91149229e+00
  3.91902107e+00  3.92486827e+00  3.93674526e+00  3.93866038e+00
  3.94758583e+00  3.96071132e+00  3.97298939e+00  3.97452383e+00
  3.98281526e+00  3.99298589e+00  3.99580164e+00  4.00140765e+00
  4.00935207e+00  4.02326951e+00  4.02894988e+00  4.03807973e+00
  4.04006081e+00  4.04715933e+00  4.05542945e+00  4.06952003e+00
  4.07751882e+00  4.08902800e+00  4.09200726e+00  4.10184973e+00
  4.11226469e+00  4.11509628e+00  4.11775416e+00  4.12793678e+00
  4.13516870e+00  4.14716314e+00  4.15338234e+00  4.16560388e+00
  4.16909022e+00  4.16989653e+00  4.17691544e+00  4.18592460e+00
  4.20483029e+00  4.20808185e+00  4.21358060e+00  4.22303237e+00
  4.23172187e+00  4.24245750e+00  4.26453519e+00  4.26634113e+00
  4.28187061e+00  4.28652820e+00  4.29463909e+00  4.30436089e+00
  4.30939520e+00  4.31628637e+00  4.33087275e+00  4.33944555e+00
  4.35138627e+00  4.35251970e+00  4.36137116e+00  4.36628154e+00
  4.37335077e+00  4.38046494e+00  4.40120506e+00  4.41093734e+00
  4.42250667e+00  4.42505895e+00  4.43435216e+00  4.43978622e+00
  4.45309799e+00  4.46710150e+00  4.47387831e+00  4.47626592e+00
  4.48322451e+00  4.49840131e+00  4.52229604e+00  4.54400943e+00
  4.56964845e+00  4.57775646e+00  4.59060703e+00  4.59701602e+00
  4.59949444e+00  4.60858870e+00  4.62460193e+00  4.63735069e+00
  4.64326404e+00  4.65608046e+00  4.67698992e+00  4.68346839e+00
  4.68951394e+00  4.69607310e+00  4.71826575e+00  4.72169778e+00
  4.72875842e+00  4.74617370e+00  4.75496250e+00  4.75851137e+00
  4.76750115e+00  4.77307073e+00  4.78190010e+00  4.79142818e+00
  4.79485477e+00  4.80062443e+00  4.81136309e+00  4.81459351e+00
  4.82367340e+00  4.83964581e+00  4.85240919e+00  4.85764572e+00
  4.86965960e+00  4.88502961e+00  4.88599411e+00  4.89408864e+00
  4.90478540e+00  4.90818382e+00  4.93585538e+00  4.94882294e+00
  4.96540082e+00  4.97844038e+00  4.98530150e+00  4.98589450e+00
  4.99647753e+00  5.00089093e+00  5.01658429e+00  5.02450267e+00
  5.02626196e+00  5.03613327e+00  5.04002073e+00  5.05582941e+00
  5.06821179e+00  5.07229221e+00  5.08309338e+00  5.08612016e+00
  5.09324797e+00  5.10097366e+00  5.11332620e+00  5.11558733e+00
  5.12776420e+00  5.13869642e+00  5.14689251e+00  5.16752749e+00
  5.17777265e+00  5.19185028e+00  5.21396585e+00  5.22858938e+00
  5.23570624e+00  5.23899276e+00  5.25025254e+00  5.26444454e+00
  5.27230998e+00  5.27955718e+00  5.29437380e+00  5.30947655e+00
  5.32762060e+00  5.34075604e+00  5.34865020e+00  5.36248743e+00
  5.37268760e+00  5.38524213e+00  5.40590115e+00  5.41647689e+00
  5.43833275e+00  5.44398520e+00  5.44554465e+00  5.45794157e+00
  5.47875099e+00  5.48769154e+00  5.51231922e+00  5.52336516e+00
  5.54000287e+00  5.54982284e+00  5.56028992e+00  5.57720793e+00
  5.58980180e+00  5.62242477e+00  5.64443110e+00  5.64472413e+00
  5.69628558e+00  5.70984797e+00  5.71586696e+00  5.74014106e+00
  5.78690044e+00  5.79050080e+00  5.83143401e+00  5.85030552e+00
  5.85428598e+00  5.88415537e+00  5.88779422e+00  5.90736578e+00
  5.93683107e+00  5.99681672e+00  6.01935012e+00  6.05664274e+00
  6.07977564e+00  6.09781072e+00  6.12522647e+00  6.18506559e+00
  6.29312038e+00  6.29420199e+00  6.32626432e+00  6.40377863e+00
  6.47876053e+00  6.67629172e+00  6.72181752e+00  6.81159309e+00
  7.01607153e+00  7.27235054e+00  2.23723473e+01  2.23841533e+01
  2.24077747e+01  2.25365972e+01  2.25713127e+01  2.26485250e+01
  2.26596319e+01  2.26663090e+01  2.26692286e+01  2.26835362e+01
  2.27019620e+01  2.28459702e+01  2.29654817e+01  2.29756672e+01
  2.30428173e+01  2.31292138e+01  2.32002149e+01  2.32236904e+01
  2.33541957e+01  2.34172994e+01  2.35660787e+01  2.36617422e+01
  3.21612930e+01  3.22664327e+01  3.24787993e+01  3.26585036e+01
  3.27592762e+01  3.28789100e+01  3.32259055e+01  4.41330869e+01]
nelec by numeric integration = 215.99995864475596
    CPU time for vxc    168.48 sec, wall time      9.35 sec
    CPU time for df vj and vk    640.36 sec, wall time     40.70 sec
E1 = -7673.38485949538  Ecoul = 3583.961462336398  Exc = -185.03583642179666
cycle= 3 E= -1312.05584630232  delta_E= -5.43e-10  |g|= 2.9e-06  |ddm|= 5.08e-05
    CPU time for cycle= 3    815.69 sec, wall time     50.82 sec
  HOMO = -0.207081502324998  LUMO = -0.051988436700034
  mo_energy =
[-1.92727920e+01 -1.44800524e+01 -1.44415540e+01 -1.43852650e+01
 -1.43832877e+01 -1.43813255e+01 -1.43701986e+01 -1.43295860e+01
 -1.03273342e+01 -1.03026357e+01 -1.02924267e+01 -1.02818452e+01
 -1.02812340e+01 -1.02783688e+01 -1.02713759e+01 -1.02673306e+01
 -1.02644223e+01 -1.02527361e+01 -1.02449180e+01 -1.02360941e+01
 -1.02328128e+01 -1.02314565e+01 -1.02309555e+01 -1.02294703e+01
 -1.02258254e+01 -1.02231060e+01 -1.02203990e+01 -1.02186011e+01
 -1.02167183e+01 -1.02104954e+01 -1.13077130e+00 -1.06414317e+00
 -1.01455760e+00 -9.84662862e-01 -9.68450132e-01 -9.34682830e-01
 -8.79916852e-01 -8.75664436e-01 -8.62981097e-01 -8.52521373e-01
 -8.34353448e-01 -7.97191910e-01 -7.89630560e-01 -7.72727628e-01
 -7.61135533e-01 -7.57708153e-01 -7.40287345e-01 -7.10751259e-01
 -6.86526892e-01 -6.74261579e-01 -6.53789521e-01 -6.52121516e-01
 -6.43515572e-01 -6.22646835e-01 -6.12234949e-01 -6.05043261e-01
 -5.92155801e-01 -5.74131517e-01 -5.65762598e-01 -5.51893652e-01
 -5.44727000e-01 -5.37330257e-01 -5.18224180e-01 -5.14263957e-01
 -5.09440049e-01 -5.01422034e-01 -4.92657566e-01 -4.88285748e-01
 -4.78687246e-01 -4.75766411e-01 -4.65434625e-01 -4.62329938e-01
 -4.57659030e-01 -4.52467839e-01 -4.48477797e-01 -4.46884718e-01
 -4.43539851e-01 -4.40160237e-01 -4.37673847e-01 -4.33536400e-01
 -4.19878442e-01 -4.13108085e-01 -4.08224075e-01 -4.04181575e-01
 -4.00396711e-01 -3.90949979e-01 -3.82104053e-01 -3.75993914e-01
 -3.67460980e-01 -3.64761118e-01 -3.63555757e-01 -3.58358019e-01
 -3.52328611e-01 -3.51677383e-01 -3.51205616e-01 -3.45814351e-01
 -3.40755810e-01 -3.30832150e-01 -3.04165000e-01 -3.01178144e-01
 -2.82279345e-01 -2.74633631e-01 -2.58212999e-01 -2.45562563e-01
 -2.39717238e-01 -2.28972134e-01 -2.24779264e-01 -2.07081502e-01
 -5.19884367e-02 -3.18040757e-02 -7.15157867e-03  1.00811711e-03
  1.93834473e-02  3.23060860e-02  3.53602501e-02  4.78062119e-02
  4.88419306e-02  5.56637695e-02  5.83415531e-02  6.25211332e-02
  6.70559956e-02  6.85951914e-02  7.66625968e-02  8.13781288e-02
  8.43543563e-02  8.86256681e-02  9.41125619e-02  1.02883882e-01
  1.07066900e-01  1.10301091e-01  1.14990172e-01  1.16700002e-01
  1.20411550e-01  1.23361274e-01  1.27197958e-01  1.31395690e-01
  1.35068130e-01  1.38503014e-01  1.40428320e-01  1.42205369e-01
  1.47704425e-01  1.50106121e-01  1.55888052e-01  1.61295128e-01
  1.64931676e-01  1.71448554e-01  1.72413369e-01  1.75592646e-01
  1.78945819e-01  1.82455714e-01  1.86502078e-01  1.87539659e-01
  1.91851818e-01  1.93203844e-01  1.95083180e-01  2.01929761e-01
  2.04059195e-01  2.05698333e-01  2.09817290e-01  2.17377523e-01
  2.19220643e-01  2.25285681e-01  2.26829222e-01  2.30065886e-01
  2.32016382e-01  2.33252014e-01  2.38516831e-01  2.40118362e-01
  2.45995467e-01  2.47755523e-01  2.50170023e-01  2.54349148e-01
  2.60491842e-01  2.63000745e-01  2.65742959e-01  2.67175370e-01
  2.70732836e-01  2.75679683e-01  2.77985567e-01  2.81154610e-01
  2.84741297e-01  2.89920458e-01  2.92331232e-01  2.97463237e-01
  3.01720328e-01  3.05073722e-01  3.12059542e-01  3.13997665e-01
  3.16193350e-01  3.22301948e-01  3.23799862e-01  3.27502986e-01
  3.32799511e-01  3.34224133e-01  3.40099832e-01  3.46014264e-01
  3.48367954e-01  3.50945379e-01  3.60132633e-01  3.62371833e-01
  3.63701335e-01  3.65006593e-01  3.68716590e-01  3.72176882e-01
  3.74329086e-01  3.77701685e-01  3.81468736e-01  3.83291064e-01
  3.89860158e-01  3.92002617e-01  3.96929387e-01  3.99515137e-01
  4.01568560e-01  4.08082643e-01  4.10082200e-01  4.13822306e-01
  4.14262846e-01  4.16042402e-01  4.20778442e-01  4.26401104e-01
  4.29101543e-01  4.32109686e-01  4.33242067e-01  4.36699950e-01
  4.39336907e-01  4.40652859e-01  4.43017679e-01  4.45279917e-01
  4.48776165e-01  4.51703386e-01  4.53384998e-01  4.55144253e-01
  4.57292173e-01  4.59320362e-01  4.62653242e-01  4.65104243e-01
  4.66374367e-01  4.68217960e-01  4.72450901e-01  4.74335906e-01
  4.77523217e-01  4.79202759e-01  4.80603121e-01  4.85955883e-01
  4.90291417e-01  4.97494841e-01  5.04275087e-01  5.05337630e-01
  5.09172323e-01  5.12342302e-01  5.20214707e-01  5.21057696e-01
  5.26298873e-01  5.29374103e-01  5.33388646e-01  5.35051347e-01
  5.38524175e-01  5.42246315e-01  5.49336406e-01  5.51402904e-01
  5.55453962e-01  5.62289581e-01  5.64012384e-01  5.67222446e-01
  5.70716665e-01  5.74964679e-01  5.82775248e-01  5.85559940e-01
  5.90293477e-01  5.97008995e-01  6.01546459e-01  6.05907350e-01
  6.09399970e-01  6.13379082e-01  6.20823962e-01  6.21023502e-01
  6.23437035e-01  6.25395942e-01  6.29204131e-01  6.35356691e-01
  6.36718099e-01  6.43607044e-01  6.44330235e-01  6.46435048e-01
  6.56851661e-01  6.59861101e-01  6.64428139e-01  6.70977147e-01
  6.76936106e-01  6.78030985e-01  6.83100737e-01  6.87106365e-01
  6.88224543e-01  6.96541331e-01  6.99334538e-01  7.02935284e-01
  7.08159764e-01  7.18228062e-01  7.18835648e-01  7.24526615e-01
  7.30258253e-01  7.33051458e-01  7.39087070e-01  7.42953214e-01
  7.47904025e-01  7.49376366e-01  7.53834410e-01  7.60287814e-01
  7.63396417e-01  7.65949432e-01  7.71420310e-01  7.73502737e-01
  7.81481406e-01  7.86493628e-01  7.87539879e-01  7.94411425e-01
  7.99888267e-01  8.01372216e-01  8.09648259e-01  8.11138330e-01
  8.13173896e-01  8.20915459e-01  8.23175172e-01  8.28906316e-01
  8.39605716e-01  8.43069511e-01  8.45990624e-01  8.50397540e-01
  8.56508560e-01  8.60814057e-01  8.64030640e-01  8.67284239e-01
  8.70176008e-01  8.79385929e-01  8.81229992e-01  8.87456115e-01
  8.90456291e-01  8.94657475e-01  9.01845460e-01  9.02801327e-01
  9.14643734e-01  9.18658316e-01  9.25910094e-01  9.35630441e-01
  9.41069061e-01  9.46497593e-01  9.53246460e-01  9.54770684e-01
  9.62788631e-01  9.65239813e-01  9.69610688e-01  9.76121885e-01
  9.80170483e-01  9.87520060e-01  9.96476764e-01  1.00256480e+00
  1.00999191e+00  1.01315950e+00  1.01791506e+00  1.02780746e+00
  1.03084243e+00  1.03979917e+00  1.04875235e+00  1.05342339e+00
  1.05705539e+00  1.06323679e+00  1.06793669e+00  1.07176871e+00
  1.07669665e+00  1.08499121e+00  1.09760806e+00  1.10054878e+00
  1.10943353e+00  1.11015337e+00  1.11337775e+00  1.11601596e+00
  1.12740878e+00  1.13382336e+00  1.14384055e+00  1.14995153e+00
  1.15263219e+00  1.16046233e+00  1.16671519e+00  1.17159001e+00
  1.17823311e+00  1.18798738e+00  1.19064592e+00  1.19391945e+00
  1.20110708e+00  1.20905077e+00  1.21667762e+00  1.21979225e+00
  1.22294423e+00  1.22740683e+00  1.23174320e+00  1.24283456e+00
  1.24548062e+00  1.25080392e+00  1.25623835e+00  1.25946766e+00
  1.26726841e+00  1.27339700e+00  1.27656305e+00  1.28226328e+00
  1.29304312e+00  1.29921770e+00  1.30848744e+00  1.31330206e+00
  1.32115529e+00  1.32641608e+00  1.33052498e+00  1.34026054e+00
  1.34680306e+00  1.34886401e+00  1.36279988e+00  1.36870083e+00
  1.37400240e+00  1.37820776e+00  1.38307284e+00  1.39236378e+00
  1.39367562e+00  1.40645248e+00  1.40860646e+00  1.41052119e+00
  1.41821947e+00  1.42206580e+00  1.42329620e+00  1.43000755e+00
  1.44255872e+00  1.44471213e+00  1.45153862e+00  1.45853314e+00
  1.46282982e+00  1.46677570e+00  1.47577614e+00  1.47757150e+00
  1.48494377e+00  1.49345322e+00  1.49811601e+00  1.50601115e+00
  1.51070030e+00  1.51466589e+00  1.51796720e+00  1.52211877e+00
  1.52384813e+00  1.53001807e+00  1.53770077e+00  1.53972052e+00
  1.54276572e+00  1.55835935e+00  1.56514456e+00  1.56749295e+00
  1.58045812e+00  1.58364195e+00  1.58622498e+00  1.58834280e+00
  1.58932201e+00  1.59070929e+00  1.59754792e+00  1.59885693e+00
  1.60640180e+00  1.60776240e+00  1.61473228e+00  1.61653771e+00
  1.61777492e+00  1.62810128e+00  1.62899130e+00  1.63894234e+00
  1.64243760e+00  1.64867213e+00  1.65315073e+00  1.65794537e+00
  1.66210260e+00  1.66698774e+00  1.66774141e+00  1.67802650e+00
  1.68241511e+00  1.68628992e+00  1.68829136e+00  1.69217335e+00
  1.69889120e+00  1.70385817e+00  1.71026652e+00  1.71142255e+00
  1.71914769e+00  1.72216717e+00  1.72988459e+00  1.73349786e+00
  1.74242741e+00  1.74987641e+00  1.75560969e+00  1.76025958e+00
  1.76093259e+00  1.76569035e+00  1.77869611e+00  1.78489810e+00
  1.78945759e+00  1.79118104e+00  1.79737385e+00  1.80607833e+00
  1.80872794e+00  1.81256237e+00  1.81898693e+00  1.82956763e+00
  1.83156231e+00  1.83440149e+00  1.84111548e+00  1.85119372e+00
  1.85591416e+00  1.86680161e+00  1.86896065e+00  1.87303085e+00
  1.88203319e+00  1.88456804e+00  1.89091379e+00  1.90243209e+00
  1.90790455e+00  1.91384995e+00  1.92186627e+00  1.93029339e+00
  1.93417921e+00  1.94632009e+00  1.95560534e+00  1.96221261e+00
  1.96629096e+00  1.96739793e+00  1.97079530e+00  1.97565522e+00
  1.98131846e+00  1.99189016e+00  1.99869686e+00  2.00312745e+00
  2.00594682e+00  2.01231254e+00  2.01465776e+00  2.01948466e+00
  2.02721747e+00  2.03279392e+00  2.04037626e+00  2.04296850e+00
  2.04884446e+00  2.05183980e+00  2.05624210e+00  2.05890317e+00
  2.06944136e+00  2.07770727e+00  2.08237124e+00  2.08251799e+00
  2.09149443e+00  2.09943590e+00  2.11039062e+00  2.11484027e+00
  2.12540717e+00  2.13579777e+00  2.13758168e+00  2.14727490e+00
  2.15523127e+00  2.16684933e+00  2.17345734e+00  2.17619635e+00
  2.18122325e+00  2.19156151e+00  2.19806349e+00  2.20144233e+00
  2.20320194e+00  2.20963987e+00  2.22202731e+00  2.22287644e+00
  2.22710136e+00  2.24098593e+00  2.24208286e+00  2.24664098e+00
  2.24987170e+00  2.27244958e+00  2.27579050e+00  2.28425852e+00
  2.28908348e+00  2.30014436e+00  2.30429674e+00  2.31021385e+00
  2.31450651e+00  2.32190284e+00  2.32362375e+00  2.32680029e+00
  2.33756442e+00  2.33792563e+00  2.34459778e+00  2.34990135e+00
  2.35511395e+00  2.35984236e+00  2.36969039e+00  2.37361374e+00
  2.37804844e+00  2.39311837e+00  2.40029717e+00  2.40408917e+00
[...]
  2.00594680e+00  2.01231254e+00  2.01465776e+00  2.01948466e+00
  2.02721746e+00  2.03279392e+00  2.04037626e+00  2.04296850e+00
  2.04884447e+00  2.05183979e+00  2.05624210e+00  2.05890318e+00
  2.06944136e+00  2.07770727e+00  2.08237125e+00  2.08251799e+00
  2.09149443e+00  2.09943589e+00  2.11039061e+00  2.11484028e+00
  2.12540717e+00  2.13579778e+00  2.13758167e+00  2.14727489e+00
  2.15523127e+00  2.16684933e+00  2.17345734e+00  2.17619635e+00
  2.18122326e+00  2.19156152e+00  2.19806348e+00  2.20144232e+00
  2.20320193e+00  2.20963986e+00  2.22202732e+00  2.22287646e+00
  2.22710136e+00  2.24098593e+00  2.24208286e+00  2.24664098e+00
  2.24987169e+00  2.27244957e+00  2.27579049e+00  2.28425853e+00
  2.28908347e+00  2.30014436e+00  2.30429674e+00  2.31021384e+00
  2.31450650e+00  2.32190283e+00  2.32362375e+00  2.32680030e+00
  2.33756443e+00  2.33792563e+00  2.34459777e+00  2.34990134e+00
  2.35511394e+00  2.35984236e+00  2.36969040e+00  2.37361373e+00
  2.37804846e+00  2.39311837e+00  2.40029717e+00  2.40408917e+00
  2.41188068e+00  2.41717993e+00  2.41977387e+00  2.42756302e+00
  2.43977726e+00  2.44183233e+00  2.44644209e+00  2.45152401e+00
  2.45502631e+00  2.47044998e+00  2.47590230e+00  2.47949086e+00
  2.48902200e+00  2.49089780e+00  2.49416123e+00  2.50373522e+00
  2.51070283e+00  2.51887021e+00  2.52321513e+00  2.52507433e+00
  2.53342030e+00  2.54083464e+00  2.54518779e+00  2.55089137e+00
  2.56282625e+00  2.57039467e+00  2.57370218e+00  2.58604184e+00
  2.58740438e+00  2.58816875e+00  2.59038673e+00  2.59605575e+00
  2.60215041e+00  2.60683702e+00  2.61495532e+00  2.61702310e+00
  2.62448890e+00  2.62843734e+00  2.63235886e+00  2.63456711e+00
  2.64334983e+00  2.64824218e+00  2.65277224e+00  2.66173942e+00
  2.66482536e+00  2.66938532e+00  2.67392861e+00  2.67667361e+00
  2.68298123e+00  2.68356024e+00  2.69087184e+00  2.69361721e+00
  2.70091732e+00  2.70325670e+00  2.71024187e+00  2.71076159e+00
  2.71404809e+00  2.71858780e+00  2.72431624e+00  2.72526758e+00
  2.73522402e+00  2.73757365e+00  2.74650525e+00  2.75108796e+00
  2.75470888e+00  2.76104527e+00  2.76789586e+00  2.76929023e+00
  2.77085692e+00  2.77968104e+00  2.78324485e+00  2.79159802e+00
  2.79627536e+00  2.80006476e+00  2.80925717e+00  2.81676771e+00
  2.81790164e+00  2.82248472e+00  2.83068383e+00  2.83457292e+00
  2.84626977e+00  2.84844041e+00  2.85480871e+00  2.86038116e+00
  2.87301728e+00  2.88306564e+00  2.88791867e+00  2.89726812e+00
  2.89992677e+00  2.90557673e+00  2.91496855e+00  2.91897719e+00
  2.92796608e+00  2.93660066e+00  2.94014145e+00  2.94642130e+00
  2.95122662e+00  2.95590593e+00  2.96216562e+00  2.96545025e+00
  2.97181775e+00  2.98248820e+00  2.98423398e+00  2.98750352e+00
  2.99275744e+00  3.00819255e+00  3.01031570e+00  3.01734001e+00
  3.02211826e+00  3.02506423e+00  3.03030225e+00  3.04250451e+00
  3.04510719e+00  3.04701027e+00  3.04955879e+00  3.06644913e+00
  3.06834194e+00  3.07270064e+00  3.07516803e+00  3.08328354e+00
  3.09360141e+00  3.09544021e+00  3.10285205e+00  3.10969305e+00
  3.11069494e+00  3.11710451e+00  3.11933217e+00  3.12155045e+00
  3.12611813e+00  3.12964315e+00  3.13559562e+00  3.13838683e+00
  3.14640250e+00  3.15308552e+00  3.15821215e+00  3.16080894e+00
  3.16900006e+00  3.17480451e+00  3.17695655e+00  3.18094253e+00
  3.18345934e+00  3.19051204e+00  3.19534351e+00  3.19618815e+00
  3.19958016e+00  3.20458970e+00  3.20723819e+00  3.21146099e+00
  3.21466710e+00  3.21766338e+00  3.23015435e+00  3.23480829e+00
  3.23903313e+00  3.24178958e+00  3.24577115e+00  3.24698906e+00
  3.25361045e+00  3.26323578e+00  3.26699575e+00  3.26889649e+00
  3.27699458e+00  3.27903993e+00  3.28836606e+00  3.28860660e+00
  3.29453330e+00  3.30163936e+00  3.30236327e+00  3.30675820e+00
  3.31224146e+00  3.31469065e+00  3.31765021e+00  3.32442209e+00
  3.32855553e+00  3.33236582e+00  3.33844644e+00  3.34233940e+00
  3.34888899e+00  3.34990485e+00  3.35465392e+00  3.36071228e+00
  3.36549100e+00  3.37527941e+00  3.37749469e+00  3.38022440e+00
  3.38929726e+00  3.39294816e+00  3.39411945e+00  3.39761293e+00
  3.41022269e+00  3.41330772e+00  3.42082057e+00  3.42482950e+00
  3.43186533e+00  3.43507678e+00  3.43860552e+00  3.44273704e+00
  3.44841921e+00  3.45277646e+00  3.45690583e+00  3.46198827e+00
  3.46873872e+00  3.47291859e+00  3.47813176e+00  3.47848605e+00
  3.48909954e+00  3.49226717e+00  3.49891430e+00  3.50965833e+00
  3.51326021e+00  3.51601448e+00  3.52066468e+00  3.52885777e+00
  3.53237548e+00  3.53678187e+00  3.54193845e+00  3.54350957e+00
  3.55016383e+00  3.55771153e+00  3.56241366e+00  3.56600058e+00
  3.56943766e+00  3.57396985e+00  3.58058857e+00  3.59350321e+00
  3.59602684e+00  3.60171987e+00  3.60527717e+00  3.61225653e+00
  3.62297830e+00  3.62567416e+00  3.63429493e+00  3.63646652e+00
  3.65284834e+00  3.66448263e+00  3.67615506e+00  3.68357677e+00
  3.68893285e+00  3.68945183e+00  3.69311244e+00  3.70115268e+00
  3.71337806e+00  3.71989024e+00  3.73135764e+00  3.74210232e+00
  3.74981376e+00  3.75871983e+00  3.77079289e+00  3.77438253e+00
  3.78206102e+00  3.78876374e+00  3.80277048e+00  3.81835688e+00
  3.82426422e+00  3.83696936e+00  3.84045964e+00  3.84783649e+00
  3.85489989e+00  3.86600323e+00  3.87118156e+00  3.88468618e+00
  3.89152508e+00  3.90192544e+00  3.90689751e+00  3.91149228e+00
  3.91902108e+00  3.92486826e+00  3.93674524e+00  3.93866041e+00
  3.94758581e+00  3.96071131e+00  3.97298939e+00  3.97452383e+00
  3.98281526e+00  3.99298590e+00  3.99580165e+00  4.00140764e+00
  4.00935207e+00  4.02326948e+00  4.02894986e+00  4.03807973e+00
  4.04006084e+00  4.04715935e+00  4.05542945e+00  4.06952006e+00
  4.07751881e+00  4.08902800e+00  4.09200728e+00  4.10184973e+00
  4.11226467e+00  4.11509628e+00  4.11775414e+00  4.12793678e+00
  4.13516871e+00  4.14716315e+00  4.15338229e+00  4.16560385e+00
  4.16909026e+00  4.16989654e+00  4.17691542e+00  4.18592463e+00
  4.20483033e+00  4.20808189e+00  4.21358058e+00  4.22303236e+00
  4.23172185e+00  4.24245751e+00  4.26453516e+00  4.26634109e+00
  4.28187063e+00  4.28652824e+00  4.29463912e+00  4.30436088e+00
  4.30939521e+00  4.31628637e+00  4.33087275e+00  4.33944558e+00
  4.35138625e+00  4.35251969e+00  4.36137112e+00  4.36628152e+00
  4.37335077e+00  4.38046493e+00  4.40120507e+00  4.41093730e+00
  4.42250670e+00  4.42505893e+00  4.43435213e+00  4.43978624e+00
  4.45309797e+00  4.46710148e+00  4.47387828e+00  4.47626588e+00
  4.48322454e+00  4.49840128e+00  4.52229600e+00  4.54400945e+00
  4.56964845e+00  4.57775646e+00  4.59060702e+00  4.59701601e+00
  4.59949444e+00  4.60858869e+00  4.62460193e+00  4.63735067e+00
  4.64326403e+00  4.65608045e+00  4.67698989e+00  4.68346840e+00
  4.68951398e+00  4.69607309e+00  4.71826571e+00  4.72169785e+00
  4.72875837e+00  4.74617370e+00  4.75496249e+00  4.75851134e+00
  4.76750111e+00  4.77307074e+00  4.78190007e+00  4.79142813e+00
  4.79485476e+00  4.80062445e+00  4.81136310e+00  4.81459356e+00
  4.82367345e+00  4.83964577e+00  4.85240921e+00  4.85764575e+00
  4.86965957e+00  4.88502963e+00  4.88599407e+00  4.89408863e+00
  4.90478545e+00  4.90818384e+00  4.93585535e+00  4.94882293e+00
  4.96540081e+00  4.97844033e+00  4.98530143e+00  4.98589446e+00
  4.99647750e+00  5.00089095e+00  5.01658430e+00  5.02450262e+00
  5.02626195e+00  5.03613328e+00  5.04002072e+00  5.05582938e+00
  5.06821172e+00  5.07229219e+00  5.08309336e+00  5.08612015e+00
  5.09324797e+00  5.10097362e+00  5.11332619e+00  5.11558733e+00
  5.12776420e+00  5.13869643e+00  5.14689248e+00  5.16752751e+00
  5.17777268e+00  5.19185030e+00  5.21396588e+00  5.22858941e+00
  5.23570622e+00  5.23899277e+00  5.25025255e+00  5.26444456e+00
  5.27230997e+00  5.27955716e+00  5.29437375e+00  5.30947652e+00
  5.32762057e+00  5.34075600e+00  5.34865020e+00  5.36248743e+00
  5.37268759e+00  5.38524215e+00  5.40590110e+00  5.41647691e+00
  5.43833276e+00  5.44398516e+00  5.44554463e+00  5.45794156e+00
  5.47875102e+00  5.48769157e+00  5.51231917e+00  5.52336517e+00
  5.54000284e+00  5.54982287e+00  5.56028991e+00  5.57720799e+00
  5.58980183e+00  5.62242480e+00  5.64443116e+00  5.64472420e+00
  5.69628549e+00  5.70984802e+00  5.71586697e+00  5.74014110e+00
  5.78690038e+00  5.79050077e+00  5.83143398e+00  5.85030553e+00
  5.85428594e+00  5.88415541e+00  5.88779423e+00  5.90736575e+00
  5.93683100e+00  5.99681675e+00  6.01935015e+00  6.05664277e+00
  6.07977559e+00  6.09781074e+00  6.12522650e+00  6.18506563e+00
  6.29312037e+00  6.29420197e+00  6.32626431e+00  6.40377862e+00
  6.47876048e+00  6.67629174e+00  6.72181744e+00  6.81159303e+00
  7.01607145e+00  7.27235049e+00  2.23723473e+01  2.23841532e+01
  2.24077748e+01  2.25365971e+01  2.25713125e+01  2.26485249e+01
  2.26596318e+01  2.26663089e+01  2.26692285e+01  2.26835362e+01
  2.27019621e+01  2.28459702e+01  2.29654818e+01  2.29756674e+01
  2.30428173e+01  2.31292138e+01  2.32002151e+01  2.32236904e+01
  2.33541960e+01  2.34172994e+01  2.35660789e+01  2.36617422e+01
  3.21612927e+01  3.22664324e+01  3.24787993e+01  3.26585038e+01
  3.27592759e+01  3.28789099e+01  3.32259055e+01  4.41330866e+01]
nelec by numeric integration = 215.99995864475974
    CPU time for vxc    185.22 sec, wall time     10.21 sec
    CPU time for df vj and vk    651.32 sec, wall time     41.89 sec
E1 = -7673.384860502741  Ecoul = 3583.9614642338506  Exc = -185.0358373118821
Extra cycle  E= -1312.05584630232  delta_E= -7.28e-12  |g|= 8.17e-07  |ddm|= 1.69e-06
    CPU time for scf_cycle   5480.05 sec, wall time    378.93 sec
    CPU time for SCF   5480.14 sec, wall time    378.93 sec
converged SCF energy = -1312.05584630232
SCF Done after 378.96 seconds
after SCF memory used: 13.52 GB
Converting <class 'pyscf.df.df_jk.density_fit.<locals>.DFHF'> to RHF
Converting <class 'pyscf.df.df_jk.density_fit.<locals>.DFHF'> to RHF
hdiag shape (106272,)
n_occ =  108
n_vir =  984
max_vir =  292
A_size =  106272
A_reduced_size = 31536
a_x = 0.25
beta = 0.6575
alpha = 1.54
Q-Gamma tensors building time = 0.68
after Q matrix memory used: 13.77 GB
TDDFT
|-------- In-house Developed TDDFT Starts ---------|
Residual conv = 1e-05

Number of excited states = 1
Initial guess:   sTDDFT
Preconditioner:  sTDDFT
A matrix size =  106272
setting initial guess
sTDDFT Convergence tol = 1.00e-03
sTDDFT diagonalization Converged
after  5 iterations; 1.4390 seconds
final subspace 12
max_norm =  7.76e-04
MVcost     1.1568s 80.39%
GScost     0.1098s 7.63%
subgencost 0.0846s 5.88%
subcost    0.0040s 0.28%
sTDDFT excitation energy:
[3.29692326 3.56153848]
new_m = 2
initial guess done

iteration 0
beginning of step 0 memory used: 13.87 GB
    CPU time for df vj and vk   1279.27 sec, wall time     76.30 sec
subspace size: 2
Maximum residual norm:  7.78e-02
unconverged states [0]
sTDDFT_preconditioner conv 0.01
sTDDFT preconditioning Done
after 11 steps; 1.3630 s
final subspace 11
max_norm =  6.82e-03
initial_cost 0.0086s  0.63%
MVcost     1.0011s  73.44%
GScost     0.1037s  7.60%
subgencost 0.1693s  12.42%
subcost    0.0074s  0.54%
m & new_m 2 3

iteration 1
beginning of step 1 memory used: 13.91 GB
    CPU time for df vj and vk    651.24 sec, wall time     40.46 sec
subspace size: 3
Maximum residual norm:  1.84e-02
unconverged states [0]
sTDDFT_preconditioner conv 0.01
sTDDFT preconditioning Done
after 12 steps; 1.4578 s
final subspace 12
max_norm =  5.13e-03
initial_cost 0.0090s  0.62%
MVcost     1.0299s  70.65%
GScost     0.1251s  8.58%
subgencost 0.2015s  13.82%
subcost    0.0082s  0.56%
m & new_m 3 4

iteration 2
beginning of step 2 memory used: 13.91 GB
    CPU time for df vj and vk    649.96 sec, wall time     40.79 sec
subspace size: 4
Maximum residual norm:  1.51e-02
unconverged states [0]
sTDDFT_preconditioner conv 0.01
sTDDFT preconditioning Done
after 11 steps; 1.2568 s
final subspace 11
max_norm =  8.37e-03
initial_cost 0.0101s  0.80%
MVcost     0.8878s  70.64%
GScost     0.1025s  8.15%
subgencost 0.1740s  13.84%
subcost    0.0074s  0.59%
m & new_m 4 5

iteration 3
beginning of step 3 memory used: 13.91 GB
    CPU time for df vj and vk    654.15 sec, wall time     41.30 sec
subspace size: 5
Maximum residual norm:  5.04e-03
unconverged states [0]
sTDDFT_preconditioner conv 0.01
sTDDFT preconditioning Done
after 12 steps; 1.3666 s
final subspace 12
max_norm =  4.72e-03
initial_cost 0.0090s  0.66%
MVcost     0.9481s  69.38%
GScost     0.1188s  8.69%
subgencost 0.1996s  14.61%
subcost    0.0081s  0.59%
m & new_m 5 6

iteration 4
beginning of step 4 memory used: 13.91 GB
    CPU time for df vj and vk    651.09 sec, wall time     40.99 sec
subspace size: 6
Maximum residual norm:  1.77e-03
unconverged states [0]
sTDDFT_preconditioner conv 0.01
sTDDFT preconditioning Done
after 9 steps; 0.9833 s
final subspace 9
max_norm =  5.26e-03
initial_cost 0.0089s  0.91%
MVcost     0.7190s  73.12%
GScost     0.0722s  7.34%
subgencost 0.1200s  12.21%
subcost    0.0064s  0.65%
m & new_m 6 7

iteration 5
beginning of step 5 memory used: 13.91 GB
    CPU time for df vj and vk    644.90 sec, wall time     40.89 sec
subspace size: 7
Maximum residual norm:  5.91e-04
unconverged states [0]
sTDDFT_preconditioner conv 0.01
sTDDFT preconditioning Done
after 12 steps; 1.3732 s
final subspace 12
max_norm =  6.28e-03
initial_cost 0.0093s  0.67%
MVcost     0.9560s  69.62%
GScost     0.1177s  8.57%
subgencost 0.1989s  14.49%
subcost    0.0080s  0.58%
m & new_m 7 8

iteration 6
beginning of step 6 memory used: 13.91 GB
    CPU time for df vj and vk    650.71 sec, wall time     40.37 sec
subspace size: 8
Maximum residual norm:  1.82e-04
unconverged states [0]
sTDDFT_preconditioner conv 0.01
sTDDFT preconditioning Done
after 11 steps; 1.2596 s
final subspace 11
max_norm =  9.05e-03
initial_cost 0.0087s  0.69%
MVcost     0.8979s  71.28%
GScost     0.1006s  7.99%
subgencost 0.1709s  13.57%
subcost    0.0076s  0.60%
m & new_m 8 9

iteration 7
beginning of step 7 memory used: 13.91 GB
    CPU time for df vj and vk    649.27 sec, wall time     40.41 sec
subspace size: 9
Maximum residual norm:  6.46e-05
unconverged states [0]
sTDDFT_preconditioner conv 0.01
sTDDFT preconditioning Done
after 10 steps; 1.0906 s
final subspace 10
max_norm =  7.26e-03
initial_cost 0.0086s  0.79%
MVcost     0.7837s  71.87%
GScost     0.0840s  7.70%
subgencost 0.1409s  12.92%
subcost    0.0065s  0.60%
m & new_m 9 10

iteration 8
beginning of step 8 memory used: 13.91 GB
    CPU time for df vj and vk    645.38 sec, wall time     41.29 sec
subspace size: 10
Maximum residual norm:  2.04e-05
unconverged states [0]
sTDDFT_preconditioner conv 0.01
sTDDFT preconditioning Done
after 9 steps; 1.0422 s
final subspace 9
max_norm =  4.80e-03
initial_cost 0.0088s  0.84%
MVcost     0.7763s  74.49%
GScost     0.0730s  7.01%
subgencost 0.1207s  11.58%
subcost    0.0063s  0.61%
m & new_m 10 11

iteration 9
beginning of step 9 memory used: 13.91 GB
    CPU time for df vj and vk    654.86 sec, wall time     40.59 sec
subspace size: 11
Maximum residual norm:  7.04e-06
TDDFT precedure Done

============= TDDFT Calculation Done ==============
after 10 iterations 585.72 s
Final subspace  11
preconditioning cost 11.2235 0.02 %
max_norm =  7.04e-06
Total TDDFT memory used: 13.91 GB
Excited State energies (eV) =
 [3.51771507]

Number of excited states = 1
Initial guess:   Adiag
Preconditioner:  Adiag
A matrix size =  106272
new_m = 2
initial guess done

iteration 0
beginning of step 0 memory used: 13.87 GB
    CPU time for df vj and vk   1294.23 sec, wall time     78.12 sec
subspace size: 2
Maximum residual norm:  4.14e-02
unconverged states [0]
m & new_m 2 3

iteration 1
beginning of step 1 memory used: 13.91 GB
    CPU time for df vj and vk    647.48 sec, wall time     40.67 sec
subspace size: 3
Maximum residual norm:  3.16e-02
unconverged states [0]
m & new_m 3 4

iteration 2
beginning of step 2 memory used: 13.91 GB
    CPU time for df vj and vk    648.60 sec, wall time     40.33 sec
subspace size: 4
Maximum residual norm:  6.25e-02
unconverged states [0]
m & new_m 4 5

iteration 3
beginning of step 3 memory used: 13.91 GB
    CPU time for df vj and vk    655.61 sec, wall time     42.20 sec
subspace size: 5
Maximum residual norm:  2.47e-02
unconverged states [0]
m & new_m 5 6

iteration 4
beginning of step 4 memory used: 13.91 GB
    CPU time for df vj and vk    649.15 sec, wall time     40.20 sec
subspace size: 6
Maximum residual norm:  1.56e-02
unconverged states [0]
m & new_m 6 7

iteration 5
beginning of step 5 memory used: 13.91 GB
    CPU time for df vj and vk    645.54 sec, wall time     40.14 sec
subspace size: 7
Maximum residual norm:  5.89e-03
unconverged states [0]
m & new_m 7 8

iteration 6
beginning of step 6 memory used: 13.91 GB
    CPU time for df vj and vk    651.00 sec, wall time     41.03 sec
subspace size: 8
Maximum residual norm:  3.32e-03
unconverged states [0]
m & new_m 8 9

iteration 7
beginning of step 7 memory used: 13.91 GB
    CPU time for df vj and vk    654.03 sec, wall time     40.96 sec
subspace size: 9
Maximum residual norm:  2.11e-03
unconverged states [0]
m & new_m 9 10

iteration 8
beginning of step 8 memory used: 13.91 GB
    CPU time for df vj and vk    649.36 sec, wall time     41.16 sec
subspace size: 10
Maximum residual norm:  1.28e-03
unconverged states [0]
m & new_m 10 11

iteration 9
beginning of step 9 memory used: 13.91 GB
    CPU time for df vj and vk    639.53 sec, wall time     39.89 sec
subspace size: 11
Maximum residual norm:  8.25e-04
unconverged states [0]
m & new_m 11 12

iteration 10
beginning of step 10 memory used: 13.91 GB
    CPU time for df vj and vk    646.39 sec, wall time     41.02 sec
subspace size: 12
Maximum residual norm:  6.60e-04
unconverged states [0]
m & new_m 12 13

iteration 11
beginning of step 11 memory used: 13.91 GB
    CPU time for df vj and vk    649.69 sec, wall time     40.72 sec
subspace size: 13
Maximum residual norm:  3.36e-04
unconverged states [0]
m & new_m 13 14

iteration 12
beginning of step 12 memory used: 13.91 GB
    CPU time for df vj and vk    653.31 sec, wall time     41.59 sec
subspace size: 14
Maximum residual norm:  1.58e-04
unconverged states [0]
m & new_m 14 15

iteration 13
beginning of step 13 memory used: 13.91 GB
    CPU time for df vj and vk    649.51 sec, wall time     41.42 sec
subspace size: 15
Maximum residual norm:  8.80e-05
unconverged states [0]
m & new_m 15 16

iteration 14
beginning of step 14 memory used: 13.91 GB
    CPU time for df vj and vk    651.06 sec, wall time     40.71 sec
subspace size: 16
Maximum residual norm:  4.03e-05
unconverged states [0]
m & new_m 16 17

iteration 15
beginning of step 15 memory used: 13.91 GB
    CPU time for df vj and vk    650.58 sec, wall time     40.53 sec
subspace size: 17
Maximum residual norm:  2.09e-05
unconverged states [0]
m & new_m 17 18

iteration 16
beginning of step 16 memory used: 13.91 GB
    CPU time for df vj and vk    654.54 sec, wall time     41.77 sec
subspace size: 18
Maximum residual norm:  1.18e-05
unconverged states [0]
m & new_m 18 19

iteration 17
beginning of step 17 memory used: 13.91 GB
    CPU time for df vj and vk    649.86 sec, wall time     41.15 sec
subspace size: 19
Maximum residual norm:  5.71e-06
TDDFT precedure Done

============= TDDFT Calculation Done ==============
after 18 iterations 995.44 s
Final subspace  19
preconditioning cost 0.0744 0.00 %
max_norm =  5.71e-06
Total TDDFT memory used: 13.91 GB
Excited State energies (eV) =
 [3.51771507]
xyzfile = 57_Cypridina_luciferin.xyz
checkfile = True
method = RKS
functional = pbe0
basis_set = def2-tzvp
density_fit = True
grid_level = 3
nstates = 1
pytd = False
TDA = False
TDDFT = True
dynpol = False
dynpol_omega = []
stapol = False
sTDA = False
sTDDFT = False
Truncate_test = False
truncate_virtual = 40.0
ip_options = [0, 1]
conv_tolerance = 1e-05
initial_TOL = 0.001
precond_TOL = 0.01
extrainitial = 8
max = 30
eigensolver_tol = 1e-05
memory = 80000
verbose = 5
beta = []
alpha = []
|-------- In-house Developed TDDFT Ends ----------|
