curpath /scratch/pbsjobs/job.15971887.hpc
lib.num_threads() =  16
at beginning memory used: 51.86328125 MB
mol.max_memory 50000


System: uname_result(system='Linux', node='compt177', release='3.10.0-1127.el7.x86_64', version='#1 SMP Tue Feb 18 16:39:12 EST 2020', machine='x86_64', processor='x86_64')  Threads 16
Python 3.7.0 (default, Aug 23 2018, 14:24:33) 
[GCC 6.3.0]
numpy 1.18.1  scipy 1.4.1
Date: Wed Jul  7 14:46:39 2021
PySCF version 1.7.4
PySCF path  /home/zzz6/.local/lib/python3.7/site-packages/pyscf

[CONFIG] conf_file None
[INPUT] verbose = 5
[INPUT] max_memory = 50000 
[INPUT] num. atoms = 36
[INPUT] num. electrons = 146
[INPUT] charge = 0
[INPUT] spin (= nelec alpha-beta = 2S) = 0
[INPUT] symmetry False subgroup None
[INPUT] Mole.unit = angstrom
[INPUT]  1 C     -0.770776205221  -0.810934812406   6.910435180694 AA   -1.456555931199  -1.532444700322  13.058829893071 Bohr
[INPUT]  2 C      0.274362451006  -0.114946085476   6.215462603653 AA    0.518469891266  -0.217216620640  11.745522058381 Bohr
[INPUT]  3 C      0.953194199126   0.974831137340   6.767514665989 AA    1.801275979871   1.842163867271  12.788749262696 Bohr
[INPUT]  4 C      0.597320635556   1.383154759756   8.062251651777 AA    1.128772409753   2.613783683828  15.235447569181 Bohr
[INPUT]  5 C     -0.438119660860   0.705287818263   8.767318137668 AA   -0.827926168813   1.332800815508  16.567830127123 Bohr
[INPUT]  6 C     -1.116093460692  -0.377875129474   8.210852076749 AA   -2.109110970125  -0.714080503989  15.516261674373 Bohr
[INPUT]  7 C     -1.238528027404  -1.841090150700   6.033949970660 AA   -2.340478769392  -3.479156155458  11.402512893876 Bohr
[INPUT]  8 C     -0.494293577861  -1.767636860477   4.856584245874 AA   -0.934079487288  -3.340349553988   9.177614125580 Bohr
[INPUT]  9 H      1.741376098672   1.522122130924   6.242893110315 AA    3.290723906353   2.876393955585  11.797358203429 Bohr
[INPUT] 10 H     -0.737252165038   1.067406223183   9.756113344475 AA   -1.393204676665   2.017105425471  18.436382261273 Bohr
[INPUT] 11 H     -1.917285415333  -0.875283817922   8.767163092853 AA   -3.623144337602  -1.654046697135  16.567537134887 Bohr
[INPUT] 12 H     -2.008079330955  -2.581709970213   6.249569119350 AA   -3.794719971906  -4.878724776762  11.809974032110 Bohr
[INPUT] 13 H      1.014056592313  -0.384191685626   4.236615719315 AA    1.916289234282  -0.726017065168   8.006043404533 Bohr
[INPUT] 14 C     -0.557752125446  -2.589895543981   3.649761569464 AA   -1.053998762488  -4.894193269355   6.897049786250 Bohr
[INPUT] 15 C      0.522808420425  -2.655925730991   2.741216161162 AA    0.987964730219  -5.018972238758   5.180147792827 Bohr
[INPUT] 16 C     -1.712728821248  -3.357824366907   3.361182303837 AA   -3.236588397808  -6.345368427845   6.351714008986 Bohr
[INPUT] 17 C      0.446385021821  -3.440781206494   1.586526814519 AA    0.843545437349  -6.502134134825   2.998101168719 Bohr
[INPUT] 18 H      1.453921720129  -2.119965640114   2.955536368338 AA    2.747513857600  -4.006154453304   5.585154287351 Bohr
[INPUT] 19 C     -1.783952934725  -4.145675429109   2.215566968501 AA   -3.371182465744  -7.834191162354   4.186814781100 Bohr
[INPUT] 20 H     -2.568709461173  -3.313409414253   4.041307802486 AA   -4.854157375195  -6.261436331494   7.636964931766 Bohr
[INPUT] 21 C     -0.710978769575  -4.190627729472   1.300522221802 AA   -1.343555154877  -7.919138698710   2.457630818116 Bohr
[INPUT] 22 H      1.317061131045  -3.500458017908   0.925181666946 AA    2.488884826984  -6.614906964384   1.748339965996 Bohr
[INPUT] 23 H     -2.671871176187  -4.742554801358   1.988979804092 AA   -5.049104763113  -8.962129705307   3.758627097025 Bohr
[INPUT] 24 N      0.425862906199  -0.730853282480   4.988072814994 AA    0.804764259328  -1.381112541126   9.426091509727 Bohr
[INPUT] 25 C      1.327700893572   2.546624539085   8.651818501414 AA    2.508991064192   4.812422920967  16.349567447117 Bohr
[INPUT] 26 N      1.182728397575   2.701831835728  10.029389761089 AA    2.235032751163   5.105722204156  18.952799844974 Bohr
[INPUT] 27 H      1.810584042570   3.373755406828  10.468612514296 AA    3.421507965966   6.375473730176  19.782810556213 Bohr
[INPUT] 28 H      1.059263901314   1.849625840311  10.575466067506 AA    2.001718667122   3.495286271106  19.984734507216 Bohr
[INPUT] 29 C     -0.836524172675  -5.045477146531   0.081581634857 AA   -1.580801582935  -9.534569974696   0.154166946675 Bohr
[INPUT] 30 N      0.098568638362  -4.790435984601  -0.919936674349 AA    0.186267730975  -9.052612028157  -1.738428366463 Bohr
[INPUT] 31 H     -0.074365914399  -5.245987413739  -1.815177570792 AA   -0.140531211217  -9.913479464882  -3.430188476251 Bohr
[INPUT] 32 H      0.416113085246  -3.826182945097  -1.016573952345 AA    0.786339767963  -7.230437868716  -1.921046355298 Bohr
[INPUT] 33 N      1.986640477268   3.335372576619   7.866707649649 AA    3.754206410012   6.302940693196  14.865922959858 Bohr
[INPUT] 34 H      2.469865074736   4.069338196547   8.407255436847 AA    4.667368555879   7.689934699705  15.887410234902 Bohr
[INPUT] 35 N     -1.740344179887  -5.968771427162   0.063861947201 AA   -3.288773862467 -11.279343297466   0.120681589992 Bohr
[INPUT] 36 H     -1.740732288256  -6.466875872094  -0.839626730885 AA   -3.289507280992 -12.220624279815  -1.586664568236 Bohr
[INPUT] ---------------- BASIS SET ---------------- 
[INPUT] l, kappa, [nprim/nctr], expnt,             c_1 c_2 ...
[INPUT] H
[INPUT] 0    0    [3    /1   ]  34.061341         0.0060251978
                                5.1235746         0.045021094
                                1.1646626         0.20189726
[INPUT] 0    0    [1    /1   ]  0.32723041           1
[INPUT] 0    0    [1    /1   ]  0.10307241           1
[INPUT] 1    0    [1    /1   ]  0.8                  1
[INPUT] C
[INPUT] 0    0    [6    /1   ]  13575.349682      0.00022245814352
                                2035.233368       0.0017232738252
                                463.22562359      0.0089255715314
                                131.20019598      0.035727984502
                                42.853015891      0.11076259931
                                15.584185766      0.24295627626
[INPUT] 0    0    [2    /1   ]  6.2067138508      0.41440263448
                                2.5764896527      0.23744968655
[INPUT] 0    0    [1    /1   ]  0.57696339419        1
[INPUT] 0    0    [1    /1   ]  0.22972831358        1
[INPUT] 0    0    [1    /1   ]  0.095164440028       1
[INPUT] 1    0    [4    /1   ]  34.697232244      0.0053333657805
                                7.9582622826      0.035864109092
                                2.3780826883      0.14215873329
                                0.81433208183     0.34270471845
[INPUT] 1    0    [1    /1   ]  0.28887547253        1
[INPUT] 1    0    [1    /1   ]  0.10056823671        1
[INPUT] 2    0    [1    /1   ]  1.097                1
[INPUT] 2    0    [1    /1   ]  0.318                1
[INPUT] 3    0    [1    /1   ]  0.761                1
[INPUT] N
[INPUT] 0    0    [6    /1   ]  19730.800647      0.00021887984991
                                2957.8958745      0.0016960708803
                                673.22133595      0.0087954603538
                                190.68249494      0.035359382605
                                62.295441898      0.11095789217
                                22.654161182      0.24982972552
[INPUT] 0    0    [2    /1   ]  8.9791477428      0.40623896148
                                3.686300237       0.24338217176
[INPUT] 0    0    [1    /1   ]  0.84660076805        1
[INPUT] 0    0    [1    /1   ]  0.33647133771        1
[INPUT] 0    0    [1    /1   ]  0.13647653675        1
[INPUT] 1    0    [4    /1   ]  49.20038051       0.0055552416751
                                11.346790537      0.038052379723
                                3.4273972411      0.14953671029
                                1.1785525134      0.3494930523
[INPUT] 1    0    [1    /1   ]  0.41642204972        1
[INPUT] 1    0    [1    /1   ]  0.14260826011        1
[INPUT] 2    0    [1    /1   ]  1.654                1
[INPUT] 2    0    [1    /1   ]  0.469                1
[INPUT] 3    0    [1    /1   ]  1.093                1

nuclear repulsion = 1437.09149164036
number of shells = 291
number of NR pGTOs = 1086
number of NR cGTOs = 741
basis = def2-tzvp
ecp = {}
CPU time:         3.84
RKS
Density fitting turned on
Molecule built
Calculating SCF Energy...


******** <class 'pyscf.df.df_jk.density_fit.<locals>.DFHF'> ********
method = DFHF-RKS-RHF
initial guess = chkfile
damping factor = 0
level_shift factor = 0
DIIS = <class 'pyscf.scf.diis.CDIIS'>
diis_start_cycle = 1
diis_space = 8
SCF conv_tol = 1e-10
SCF conv_tol_grad = None
SCF max_cycles = 50
direct_scf = True
direct_scf_tol = 1e-13
chkfile to save SCF result = 36_DAPI_wb97x.chk
max_memory 50000 MB (current use 55 MB)
XC functionals = wb97x
small_rho_cutoff = 1e-07
radial grids: 
    Treutler-Ahlrichs [JCP 102, 346 (1995); DOI:10.1063/1.469408] (M4) radial grids
    
becke partition: Becke, JCP 88, 2547 (1988); DOI:10.1063/1.454033
pruning grids: <function nwchem_prune at 0x7fa9b87bf048>
grids dens level: 3
symmetrized grids: False
atomic radii adjust function: <function treutler_atomic_radii_adjust at 0x7fa9b87abf28>
Set gradient conv threshold to 1e-05
atom C rad-grids = 75, ang-grids = [ 50  50  50  50  50  50  50  50  50  50  50  50  50  50  50  50  50  50
  50  50  50  50  50  86  86  86  86  86  86  86  86  86  86 266 266 266
 266 266 266 266 302 302 302 302 302 302 302 302 302 302 302 302 302 302
 302 302 302 302 302 302 266 266 266 266 266 266 266 266 266 266 266 266
 266 266 266]
atom H rad-grids = 50, ang-grids = [ 50  50  50  50  50  50  50  50  50  50  50  50  50  50  86  86  86  86
 266 266 266 266 302 302 302 302 302 302 302 302 302 302 302 302 302 266
 266 266 266 266 266 266 266 266 266 266 266 266 266 266]
atom N rad-grids = 75, ang-grids = [ 50  50  50  50  50  50  50  50  50  50  50  50  50  50  50  50  50  50
  50  50  50  50  50  86  86  86  86  86  86  86  86  86 266 266 266 266
 266 266 266 302 302 302 302 302 302 302 302 302 302 302 302 302 302 302
 302 302 302 302 266 266 266 266 266 266 266 266 266 266 266 266 266 266
 266 266 266]
tot grids = 443022
Drop grids 74924
    CPU time for setting up grids     71.34 sec, wall time      5.23 sec
nelec by numeric integration = 145.9999718554465
    CPU time for vxc    121.11 sec, wall time     20.14 sec
******** <class 'pyscf.df.df.DF'> ********
auxbasis = None
max_memory = 50000
_cderi_to_save = /tmp/job.15971887.hpc/tmpe__nsja2
Default auxbasis def2-tzvp-jkfit is used for H def2-tzvp
Default auxbasis def2-tzvp-jkfit is used for C def2-tzvp
Default auxbasis def2-tzvp-jkfit is used for N def2-tzvp
num shells = 615, num cGTOs = 1855
size of aux basis 1855
int3c2e [1/1], AO [0:291], nrow = 274911
    CPU time for cholesky_eri    137.01 sec, wall time     25.65 sec
    CPU time for df vj and vk    384.86 sec, wall time     46.68 sec
Create RSH-DF object <pyscf.df.df.DF object at 0x7fa9abbcac50> for omega=0.3
******** <class 'pyscf.df.df.DF'> ********
auxbasis = None
max_memory = 50000
_cderi_to_save = /tmp/job.15971887.hpc/tmpy3x3kj21
Default auxbasis def2-tzvp-jkfit is used for H def2-tzvp
Default auxbasis def2-tzvp-jkfit is used for C def2-tzvp
Default auxbasis def2-tzvp-jkfit is used for N def2-tzvp
num shells = 615, num cGTOs = 1855
size of aux basis 1479
int3c2e [1/1], AO [0:291], nrow = 274911
    CPU time for cholesky_eri    148.95 sec, wall time     13.28 sec
    CPU time for df vj and vk    336.01 sec, wall time     26.08 sec
E1 = -4061.6232230310134  Ecoul = 1858.7580262704182  Exc = -126.81580342313002
init E= -892.589508543363
cond(S) = 1356611.8260376104
    CPU time for initialize scf    923.02 sec, wall time     99.79 sec
  HOMO = -0.282973478627759  LUMO = 0.00346281414435949
  mo_energy =
[-1.44429155e+01 -1.44189007e+01 -1.44094781e+01 -1.43626133e+01
 -1.43520306e+01 -1.03438763e+01 -1.03340771e+01 -1.03101642e+01
 -1.02975728e+01 -1.02940659e+01 -1.02833231e+01 -1.02814903e+01
 -1.02803158e+01 -1.02745477e+01 -1.02714033e+01 -1.02703251e+01
 -1.02664937e+01 -1.02642613e+01 -1.02632277e+01 -1.02616211e+01
 -1.02557017e+01 -1.11573043e+00 -1.08551686e+00 -1.07549992e+00
 -1.00198698e+00 -9.80218979e-01 -9.76403526e-01 -9.67166383e-01
 -9.24300407e-01 -9.06739289e-01 -8.86728802e-01 -8.64647702e-01
 -8.50746031e-01 -7.89495084e-01 -7.47247567e-01 -7.42638214e-01
 -7.34979394e-01 -7.09219563e-01 -6.94490546e-01 -6.78923404e-01
 -6.66692847e-01 -6.51523328e-01 -6.36529039e-01 -6.29789183e-01
 -6.10974264e-01 -5.93368538e-01 -5.86862602e-01 -5.77726090e-01
 -5.66080974e-01 -5.52270955e-01 -5.47537361e-01 -5.41561543e-01
 -5.35183322e-01 -5.33425134e-01 -5.21934083e-01 -5.15365495e-01
 -5.02985260e-01 -4.98232586e-01 -4.79689150e-01 -4.71947865e-01
 -4.64531481e-01 -4.51696818e-01 -4.41550314e-01 -4.39682134e-01
 -3.92758276e-01 -3.82272752e-01 -3.73737212e-01 -3.70156240e-01
 -3.61103516e-01 -3.49971984e-01 -3.41332271e-01 -3.12758407e-01
 -2.82973479e-01  3.46281414e-03  4.99595526e-02  5.74711194e-02
  7.57938385e-02  1.00709160e-01  1.10340001e-01  1.11415294e-01
  1.19515812e-01  1.41108067e-01  1.44918664e-01  1.47741606e-01
  1.55148104e-01  1.63848488e-01  1.64905312e-01  1.70605229e-01
  1.79491192e-01  1.82247602e-01  1.84657055e-01  1.93664929e-01
  2.00217288e-01  2.04505089e-01  2.12019721e-01  2.21080408e-01
  2.33603580e-01  2.36432227e-01  2.41382910e-01  2.50240741e-01
  2.58804761e-01  2.60234536e-01  2.68691378e-01  2.71460788e-01
  2.76805665e-01  2.88624441e-01  2.95514742e-01  2.96869738e-01
  2.97539010e-01  3.04405215e-01  3.12314323e-01  3.14947805e-01
  3.16615676e-01  3.22945151e-01  3.30195894e-01  3.37109165e-01
  3.38254038e-01  3.40304528e-01  3.42193685e-01  3.44285409e-01
  3.51883446e-01  3.63175322e-01  3.65866658e-01  3.71928469e-01
  3.75212630e-01  3.81280615e-01  3.85291463e-01  3.91929187e-01
  3.99745820e-01  4.02310121e-01  4.11680816e-01  4.12402044e-01
  4.20248483e-01  4.21742491e-01  4.29823966e-01  4.30523286e-01
  4.36044346e-01  4.36922026e-01  4.45163287e-01  4.46895179e-01
  4.51517991e-01  4.54049328e-01  4.60950804e-01  4.65093437e-01
  4.67240216e-01  4.72607845e-01  4.77912368e-01  4.79747094e-01
  4.89033565e-01  4.93707630e-01  4.97961547e-01  4.99732693e-01
  5.06032625e-01  5.08159029e-01  5.08888430e-01  5.19306133e-01
  5.24849906e-01  5.29748288e-01  5.34433437e-01  5.36909820e-01
  5.47177533e-01  5.49432686e-01  5.51247673e-01  5.53384809e-01
  5.59329972e-01  5.65122489e-01  5.72345587e-01  5.75619382e-01
  5.78870591e-01  5.84129765e-01  5.86646524e-01  5.93894172e-01
  5.99992327e-01  6.09217852e-01  6.10766979e-01  6.17905094e-01
  6.22539014e-01  6.28896015e-01  6.33160713e-01  6.39732273e-01
  6.47929379e-01  6.54608225e-01  6.67596062e-01  6.72263802e-01
  6.75940752e-01  6.86603616e-01  6.91983167e-01  6.99604311e-01
  7.03548983e-01  7.07990289e-01  7.14878940e-01  7.15853399e-01
  7.28692673e-01  7.29860174e-01  7.40649017e-01  7.45767359e-01
  7.49583079e-01  7.54174847e-01  7.59655175e-01  7.66250889e-01
  7.71420013e-01  7.79170619e-01  7.84562487e-01  7.92469472e-01
  7.93630592e-01  7.97549857e-01  8.04844805e-01  8.10593254e-01
  8.14154798e-01  8.25387425e-01  8.28651361e-01  8.36228856e-01
  8.43898942e-01  8.47363048e-01  8.51310638e-01  8.56084258e-01
  8.60802638e-01  8.63415223e-01  8.79654219e-01  8.85208789e-01
  8.92336847e-01  9.03666992e-01  9.07262961e-01  9.17178303e-01
  9.26559062e-01  9.30633997e-01  9.35433282e-01  9.50003504e-01
  9.51075421e-01  9.60969837e-01  9.68189111e-01  9.75870279e-01
  9.83948684e-01  1.00456180e+00  1.00991482e+00  1.01288599e+00
  1.01470429e+00  1.03670588e+00  1.04320268e+00  1.04762347e+00
  1.05314269e+00  1.07006876e+00  1.07125932e+00  1.08497695e+00
  1.09948543e+00  1.11199980e+00  1.12701639e+00  1.13527435e+00
  1.14772887e+00  1.15165429e+00  1.16011571e+00  1.17096007e+00
  1.17303183e+00  1.18436454e+00  1.19255735e+00  1.19839194e+00
  1.20621333e+00  1.21531802e+00  1.22093575e+00  1.23656028e+00
  1.24439491e+00  1.25474373e+00  1.26535120e+00  1.27352502e+00
  1.29737803e+00  1.30313586e+00  1.31027490e+00  1.31198001e+00
  1.32700140e+00  1.33097531e+00  1.33611818e+00  1.34757697e+00
  1.35161132e+00  1.36068779e+00  1.36823742e+00  1.37600825e+00
  1.38120396e+00  1.38644880e+00  1.39668473e+00  1.39840852e+00
  1.40257908e+00  1.41216533e+00  1.41436742e+00  1.41748865e+00
  1.43081705e+00  1.44025428e+00  1.45440664e+00  1.46109828e+00
  1.46658865e+00  1.47773555e+00  1.48137819e+00  1.49599773e+00
  1.50624448e+00  1.51185391e+00  1.52577270e+00  1.53950614e+00
  1.55101842e+00  1.55427393e+00  1.56220988e+00  1.56719281e+00
  1.58363105e+00  1.58641139e+00  1.58841691e+00  1.59904902e+00
  1.60608263e+00  1.60887674e+00  1.61243012e+00  1.62283752e+00
  1.62726755e+00  1.62966845e+00  1.64123805e+00  1.64759440e+00
  1.65327570e+00  1.66494468e+00  1.66721651e+00  1.67788924e+00
  1.68731837e+00  1.69555714e+00  1.69896008e+00  1.70082467e+00
  1.70712569e+00  1.71007486e+00  1.71755456e+00  1.73321301e+00
  1.73716163e+00  1.75016765e+00  1.75107305e+00  1.75821305e+00
  1.77057826e+00  1.77905044e+00  1.79238210e+00  1.79756946e+00
  1.80268382e+00  1.80749548e+00  1.81684343e+00  1.82596063e+00
  1.83183785e+00  1.83479338e+00  1.85168375e+00  1.86140290e+00
  1.88163915e+00  1.88972363e+00  1.89094892e+00  1.90014931e+00
  1.90523187e+00  1.91434010e+00  1.92480480e+00  1.93553618e+00
  1.94480267e+00  1.95874524e+00  1.96740669e+00  1.97489504e+00
  1.98377477e+00  1.98656627e+00  1.99507180e+00  2.00442093e+00
  2.01398132e+00  2.01998445e+00  2.03891342e+00  2.05359476e+00
  2.05844922e+00  2.07564242e+00  2.08455664e+00  2.09595256e+00
  2.10155268e+00  2.10950743e+00  2.11598021e+00  2.12040850e+00
  2.12220419e+00  2.12789008e+00  2.13449499e+00  2.14716523e+00
  2.15160339e+00  2.15800506e+00  2.16253504e+00  2.16851517e+00
  2.17962457e+00  2.18990660e+00  2.19698407e+00  2.20233320e+00
  2.22230302e+00  2.23271114e+00  2.24216367e+00  2.24812867e+00
  2.25906279e+00  2.26612398e+00  2.27791949e+00  2.29389016e+00
  2.30427003e+00  2.32043216e+00  2.33262313e+00  2.34998492e+00
  2.36729244e+00  2.36950864e+00  2.38310668e+00  2.38525369e+00
  2.39135547e+00  2.40066713e+00  2.40881622e+00  2.41836119e+00
  2.43046355e+00  2.43773839e+00  2.44874310e+00  2.45699216e+00
  2.47349357e+00  2.47630931e+00  2.48915998e+00  2.49680460e+00
  2.50825493e+00  2.51502288e+00  2.52888574e+00  2.55383728e+00
  2.55925580e+00  2.56752977e+00  2.58036636e+00  2.59301956e+00
  2.60303256e+00  2.61157078e+00  2.63454861e+00  2.63725897e+00
  2.65768557e+00  2.65987765e+00  2.66373775e+00  2.67503146e+00
  2.67936103e+00  2.68818750e+00  2.69709590e+00  2.70455835e+00
  2.70743063e+00  2.71257109e+00  2.73376273e+00  2.74352217e+00
  2.74952745e+00  2.75868864e+00  2.76689892e+00  2.77754919e+00
  2.78042031e+00  2.78823617e+00  2.79676917e+00  2.80790361e+00
  2.81940414e+00  2.82673968e+00  2.83097612e+00  2.83438299e+00
  2.84526739e+00  2.85037157e+00  2.86537189e+00  2.86626994e+00
  2.87463198e+00  2.87969440e+00  2.89311442e+00  2.90739844e+00
  2.91035127e+00  2.91520543e+00  2.92185491e+00  2.92826075e+00
  2.93190103e+00  2.93393491e+00  2.94863378e+00  2.95592640e+00
  2.96103390e+00  2.97108902e+00  2.97196852e+00  2.98174364e+00
  2.98801479e+00  2.99460790e+00  3.00083973e+00  3.01223244e+00
  3.02598535e+00  3.03206030e+00  3.03922190e+00  3.04162541e+00
  3.05026269e+00  3.05306251e+00  3.06542033e+00  3.07090948e+00
  3.08544183e+00  3.08867112e+00  3.10231087e+00  3.10527072e+00
  3.11368367e+00  3.12597207e+00  3.13247579e+00  3.13655962e+00
  3.14430135e+00  3.15189300e+00  3.15882669e+00  3.16410302e+00
  3.17756109e+00  3.19051817e+00  3.19594738e+00  3.20651654e+00
  3.21785237e+00  3.22862089e+00  3.23248745e+00  3.23553425e+00
  3.24259422e+00  3.24764594e+00  3.25303811e+00  3.25501225e+00
  3.26329667e+00  3.27063403e+00  3.27253934e+00  3.28267064e+00
  3.28378122e+00  3.29031456e+00  3.29339728e+00  3.29434332e+00
  3.30758056e+00  3.30975776e+00  3.32622492e+00  3.33459767e+00
  3.33938519e+00  3.34580431e+00  3.35153036e+00  3.35563130e+00
  3.36359544e+00  3.36901001e+00  3.38165611e+00  3.38702955e+00
  3.39353660e+00  3.39783506e+00  3.40463943e+00  3.41944369e+00
  3.42093205e+00  3.43615314e+00  3.44600180e+00  3.44926648e+00
  3.45781475e+00  3.46426454e+00  3.47224306e+00  3.47390823e+00
  3.48422493e+00  3.49150286e+00  3.49666950e+00  3.50609376e+00
  3.51380801e+00  3.52041361e+00  3.53050636e+00  3.53400329e+00
  3.54070537e+00  3.54662299e+00  3.55354972e+00  3.55963793e+00
  3.56584850e+00  3.57088557e+00  3.57707079e+00  3.58243376e+00
  3.58962385e+00  3.59862306e+00  3.60786212e+00  3.61393312e+00
  3.62944064e+00  3.63666619e+00  3.64271173e+00  3.65160448e+00
  3.66177087e+00  3.67301383e+00  3.67934830e+00  3.69435944e+00
  3.70304572e+00  3.70810128e+00  3.71853642e+00  3.72601755e+00
  3.74053214e+00  3.76009238e+00  3.78915364e+00  3.80418038e+00
  3.81226554e+00  3.82027782e+00  3.84010936e+00  3.84972525e+00
  3.85174191e+00  3.86358011e+00  3.87458202e+00  3.89079478e+00
  3.89874544e+00  3.91793942e+00  3.92076305e+00  3.92629166e+00
  3.94559021e+00  3.95463252e+00  3.95925181e+00  3.97191027e+00
  3.97658331e+00  3.99655926e+00  4.01883008e+00  4.03309617e+00
  4.06167007e+00  4.06996262e+00  4.08236065e+00  4.08882338e+00
  4.11061907e+00  4.12466947e+00  4.13702189e+00  4.14135802e+00
  4.17341809e+00  4.19446292e+00  4.20497752e+00  4.21308893e+00
  4.22567258e+00  4.22593648e+00  4.24953474e+00  4.26827879e+00
  4.27519034e+00  4.28295596e+00  4.29326211e+00  4.30170248e+00
  4.31589667e+00  4.32537889e+00  4.33088982e+00  4.34184127e+00
  4.35418523e+00  4.35878712e+00  4.36196316e+00  4.38237058e+00
  4.39680660e+00  4.40054652e+00  4.41421362e+00  4.41915708e+00
  4.43250557e+00  4.43936293e+00  4.45633140e+00  4.46156248e+00
  4.47282434e+00  4.49601687e+00  4.50450083e+00  4.50818109e+00
  4.51625802e+00  4.56925071e+00  4.58928311e+00  4.59607912e+00
  4.62338924e+00  4.64611007e+00  4.65598459e+00  4.66036993e+00
  4.67225657e+00  4.69024526e+00  4.69726038e+00  4.70442757e+00
  4.72878852e+00  4.75360953e+00  4.76674523e+00  4.78008382e+00
  4.79179859e+00  4.81001922e+00  4.81502933e+00  4.82253621e+00
  4.83653902e+00  4.85483581e+00  4.86182415e+00  4.88963234e+00
  4.89916346e+00  4.91841682e+00  4.92240730e+00  4.92966186e+00
  4.94663577e+00  4.94911859e+00  4.95743811e+00  4.96006341e+00
  4.99036988e+00  4.99658410e+00  5.00647013e+00  5.01233601e+00
  5.02095636e+00  5.04015153e+00  5.05022451e+00  5.07259977e+00
  5.09158731e+00  5.09257095e+00  5.13190532e+00  5.14073045e+00
  5.15144336e+00  5.16245333e+00  5.17817419e+00  5.19162397e+00
  5.20872420e+00  5.22384497e+00  5.24033938e+00  5.25276536e+00
  5.25520698e+00  5.26481441e+00  5.29596542e+00  5.29604788e+00
  5.31192948e+00  5.32735828e+00  5.33111377e+00  5.34214112e+00
  5.36413466e+00  5.36955116e+00  5.41338344e+00  5.42166586e+00
  5.44490526e+00  5.45900202e+00  5.47713892e+00  5.48191192e+00
  5.50465085e+00  5.52486946e+00  5.53887487e+00  5.57268188e+00
  5.59692371e+00  5.60961571e+00  5.62116007e+00  5.63402239e+00
  5.66265072e+00  5.67611469e+00  5.71065976e+00  5.73724390e+00
  5.80205368e+00  5.82336934e+00  5.83128981e+00  5.85483474e+00
  5.88727240e+00  5.98596356e+00  6.03126470e+00  6.03678637e+00
  6.13774660e+00  6.24273143e+00  6.30192861e+00  6.36276120e+00
  2.23808177e+01  2.25063684e+01  2.26507923e+01  2.27238668e+01
  2.27400619e+01  2.27770335e+01  2.27851086e+01  2.28668746e+01
  2.28927740e+01  2.29590464e+01  2.30629780e+01  2.31656982e+01
  2.32192982e+01  2.32816719e+01  2.34588147e+01  2.37092423e+01
  3.20098498e+01  3.20193692e+01  3.21128773e+01  3.21284399e+01
  3.25461168e+01]
nelec by numeric integration = 145.99997185545882
    CPU time for vxc    102.05 sec, wall time      7.32 sec
    CPU time for df vj and vk    237.95 sec, wall time     19.29 sec
    CPU time for df vj and vk    178.74 sec, wall time     11.61 sec
E1 = -4061.6232290247613  Ecoul = 1858.758033632474  Exc = -126.81580479143875
cycle= 1 E= -892.589508543364  delta_E= -4.55e-13  |g|= 4.59e-06  |ddm|= 2.15e-05
    CPU time for cycle= 1    526.65 sec, wall time     39.19 sec
  HOMO = -0.282973558521425  LUMO = 0.00346268507798784
  mo_energy =
[-1.44429166e+01 -1.44188994e+01 -1.44094753e+01 -1.43626129e+01
 -1.43520334e+01 -1.03438771e+01 -1.03340767e+01 -1.03101657e+01
 -1.02975738e+01 -1.02940669e+01 -1.02833236e+01 -1.02814893e+01
 -1.02803152e+01 -1.02745476e+01 -1.02714035e+01 -1.02703249e+01
 -1.02664928e+01 -1.02642594e+01 -1.02632289e+01 -1.02616192e+01
 -1.02557010e+01 -1.11573113e+00 -1.08551674e+00 -1.07549948e+00
 -1.00198702e+00 -9.80218841e-01 -9.76403275e-01 -9.67166507e-01
 -9.24300652e-01 -9.06739337e-01 -8.86728679e-01 -8.64647514e-01
 -8.50746023e-01 -7.89495192e-01 -7.47247494e-01 -7.42638286e-01
 -7.34979337e-01 -7.09219550e-01 -6.94490581e-01 -6.78923195e-01
 -6.66692825e-01 -6.51523050e-01 -6.36528487e-01 -6.29789043e-01
 -6.10974422e-01 -5.93368390e-01 -5.86862687e-01 -5.77726041e-01
 -5.66081120e-01 -5.52270984e-01 -5.47537304e-01 -5.41561433e-01
 -5.35183314e-01 -5.33425246e-01 -5.21934115e-01 -5.15365512e-01
 -5.02985110e-01 -4.98232519e-01 -4.79689107e-01 -4.71947843e-01
 -4.64531288e-01 -4.51696875e-01 -4.41550044e-01 -4.39681896e-01
 -3.92758309e-01 -3.82272671e-01 -3.73737911e-01 -3.70156312e-01
 -3.61103378e-01 -3.49971897e-01 -3.41332377e-01 -3.12758337e-01
 -2.82973559e-01  3.46268508e-03  4.99595755e-02  5.74710576e-02
  7.57941410e-02  1.00709223e-01  1.10339892e-01  1.11415374e-01
  1.19515686e-01  1.41108136e-01  1.44918724e-01  1.47741804e-01
  1.55148076e-01  1.63848583e-01  1.64905291e-01  1.70605155e-01
  1.79491131e-01  1.82247638e-01  1.84656900e-01  1.93665044e-01
  2.00217268e-01  2.04505103e-01  2.12019790e-01  2.21080274e-01
  2.33603610e-01  2.36432248e-01  2.41382880e-01  2.50240779e-01
  2.58804857e-01  2.60234581e-01  2.68691394e-01  2.71460764e-01
  2.76805684e-01  2.88624445e-01  2.95514634e-01  2.96869740e-01
  2.97538969e-01  3.04405199e-01  3.12314283e-01  3.14947931e-01
  3.16615643e-01  3.22945158e-01  3.30195958e-01  3.37109173e-01
  3.38254000e-01  3.40304607e-01  3.42193678e-01  3.44285371e-01
  3.51883490e-01  3.63175329e-01  3.65866616e-01  3.71928508e-01
  3.75212612e-01  3.81280620e-01  3.85291474e-01  3.91929247e-01
  3.99745891e-01  4.02310093e-01  4.11680864e-01  4.12401984e-01
  4.20248466e-01  4.21742436e-01  4.29823906e-01  4.30523295e-01
  4.36044360e-01  4.36922057e-01  4.45163207e-01  4.46895155e-01
  4.51517994e-01  4.54049338e-01  4.60950916e-01  4.65093535e-01
  4.67240241e-01  4.72607796e-01  4.77912416e-01  4.79747240e-01
  4.89033627e-01  4.93707614e-01  4.97961546e-01  4.99732601e-01
  5.06032730e-01  5.08159013e-01  5.08888366e-01  5.19306179e-01
  5.24849902e-01  5.29748268e-01  5.34433511e-01  5.36909821e-01
  5.47177553e-01  5.49432690e-01  5.51247666e-01  5.53384884e-01
  5.59330077e-01  5.65122418e-01  5.72345675e-01  5.75619341e-01
  5.78870523e-01  5.84129835e-01  5.86646578e-01  5.93894091e-01
  5.99992441e-01  6.09217752e-01  6.10766961e-01  6.17905210e-01
  6.22539090e-01  6.28896077e-01  6.33160852e-01  6.39732334e-01
  6.47929399e-01  6.54608154e-01  6.67596080e-01  6.72263827e-01
  6.75940637e-01  6.86603488e-01  6.91983130e-01  6.99604321e-01
  7.03548911e-01  7.07990242e-01  7.14878978e-01  7.15853285e-01
  7.28692763e-01  7.29860120e-01  7.40648967e-01  7.45767305e-01
  7.49583035e-01  7.54174845e-01  7.59655261e-01  7.66250779e-01
  7.71419950e-01  7.79170502e-01  7.84562453e-01  7.92469404e-01
  7.93630492e-01  7.97550008e-01  8.04844725e-01  8.10593309e-01
  8.14154877e-01  8.25387538e-01  8.28651345e-01  8.36228901e-01
  8.43898979e-01  8.47363054e-01  8.51310577e-01  8.56084268e-01
  8.60802626e-01  8.63415195e-01  8.79654266e-01  8.85208751e-01
  8.92336839e-01  9.03667011e-01  9.07262973e-01  9.17178223e-01
  9.26558984e-01  9.30634032e-01  9.35433243e-01  9.50003539e-01
  9.51075586e-01  9.60969754e-01  9.68189141e-01  9.75870323e-01
  9.83948642e-01  1.00456167e+00  1.00991478e+00  1.01288597e+00
  1.01470427e+00  1.03670589e+00  1.04320277e+00  1.04762352e+00
  1.05314263e+00  1.07006889e+00  1.07125938e+00  1.08497697e+00
  1.09948558e+00  1.11199986e+00  1.12701635e+00  1.13527438e+00
  1.14772895e+00  1.15165434e+00  1.16011565e+00  1.17096005e+00
  1.17303199e+00  1.18436441e+00  1.19255739e+00  1.19839201e+00
  1.20621331e+00  1.21531802e+00  1.22093564e+00  1.23656033e+00
  1.24439486e+00  1.25474362e+00  1.26535118e+00  1.27352516e+00
  1.29737813e+00  1.30313578e+00  1.31027488e+00  1.31198000e+00
  1.32700139e+00  1.33097527e+00  1.33611819e+00  1.34757702e+00
  1.35161131e+00  1.36068782e+00  1.36823747e+00  1.37600833e+00
  1.38120402e+00  1.38644883e+00  1.39668469e+00  1.39840846e+00
  1.40257917e+00  1.41216535e+00  1.41436745e+00  1.41748876e+00
  1.43081710e+00  1.44025426e+00  1.45440669e+00  1.46109832e+00
  1.46658876e+00  1.47773559e+00  1.48137826e+00  1.49599771e+00
  1.50624432e+00  1.51185395e+00  1.52577268e+00  1.53950614e+00
  1.55101845e+00  1.55427404e+00  1.56220987e+00  1.56719294e+00
  1.58363103e+00  1.58641150e+00  1.58841697e+00  1.59904908e+00
  1.60608271e+00  1.60887680e+00  1.61243012e+00  1.62283762e+00
  1.62726757e+00  1.62966831e+00  1.64123826e+00  1.64759440e+00
  1.65327568e+00  1.66494464e+00  1.66721646e+00  1.67788940e+00
  1.68731837e+00  1.69555708e+00  1.69896004e+00  1.70082471e+00
  1.70712578e+00  1.71007485e+00  1.71755458e+00  1.73321290e+00
  1.73716171e+00  1.75016763e+00  1.75107304e+00  1.75821313e+00
  1.77057808e+00  1.77905072e+00  1.79238221e+00  1.79756953e+00
  1.80268373e+00  1.80749547e+00  1.81684335e+00  1.82596072e+00
  1.83183789e+00  1.83479335e+00  1.85168370e+00  1.86140296e+00
  1.88163928e+00  1.88972370e+00  1.89094886e+00  1.90014923e+00
  1.90523186e+00  1.91434014e+00  1.92480479e+00  1.93553607e+00
  1.94480264e+00  1.95874537e+00  1.96740671e+00  1.97489510e+00
  1.98377515e+00  1.98656621e+00  1.99507165e+00  2.00442115e+00
  2.01398138e+00  2.01998447e+00  2.03891343e+00  2.05359469e+00
  2.05844931e+00  2.07564227e+00  2.08455654e+00  2.09595257e+00
  2.10155264e+00  2.10950754e+00  2.11598023e+00  2.12040852e+00
  2.12220409e+00  2.12789015e+00  2.13449498e+00  2.14716514e+00
  2.15160332e+00  2.15800495e+00  2.16253484e+00  2.16851509e+00
  2.17962460e+00  2.18990654e+00  2.19698413e+00  2.20233287e+00
  2.22230300e+00  2.23271119e+00  2.24216367e+00  2.24812871e+00
  2.25906300e+00  2.26612396e+00  2.27791948e+00  2.29389028e+00
  2.30427010e+00  2.32043215e+00  2.33262303e+00  2.34998502e+00
  2.36729248e+00  2.36950868e+00  2.38310671e+00  2.38525353e+00
  2.39135546e+00  2.40066711e+00  2.40881630e+00  2.41836127e+00
  2.43046356e+00  2.43773828e+00  2.44874306e+00  2.45699243e+00
  2.47349379e+00  2.47630931e+00  2.48916003e+00  2.49680429e+00
  2.50825505e+00  2.51502287e+00  2.52888607e+00  2.55383750e+00
  2.55925590e+00  2.56752971e+00  2.58036652e+00  2.59301976e+00
  2.60303267e+00  2.61157073e+00  2.63454880e+00  2.63725912e+00
  2.65768568e+00  2.65987768e+00  2.66373764e+00  2.67503145e+00
  2.67936115e+00  2.68818750e+00  2.69709606e+00  2.70455848e+00
  2.70743086e+00  2.71257104e+00  2.73376259e+00  2.74352218e+00
  2.74952758e+00  2.75868873e+00  2.76689897e+00  2.77754923e+00
  2.78042039e+00  2.78823620e+00  2.79676923e+00  2.80790364e+00
  2.81940418e+00  2.82673964e+00  2.83097618e+00  2.83438291e+00
  2.84526760e+00  2.85037158e+00  2.86537190e+00  2.86627014e+00
  2.87463206e+00  2.87969440e+00  2.89311450e+00  2.90739853e+00
  2.91035129e+00  2.91520548e+00  2.92185499e+00  2.92826070e+00
  2.93190097e+00  2.93393495e+00  2.94863383e+00  2.95592641e+00
  2.96103400e+00  2.97108900e+00  2.97196871e+00  2.98174363e+00
  2.98801487e+00  2.99460784e+00  3.00083981e+00  3.01223248e+00
  3.02598551e+00  3.03206029e+00  3.03922187e+00  3.04162544e+00
  3.05026278e+00  3.05306242e+00  3.06542040e+00  3.07090964e+00
  3.08544184e+00  3.08867109e+00  3.10231090e+00  3.10527082e+00
  3.11368372e+00  3.12597215e+00  3.13247584e+00  3.13655968e+00
  3.14430148e+00  3.15189307e+00  3.15882664e+00  3.16410298e+00
  3.17756115e+00  3.19051801e+00  3.19594730e+00  3.20651647e+00
  3.21785235e+00  3.22862095e+00  3.23248753e+00  3.23553430e+00
  3.24259433e+00  3.24764592e+00  3.25303806e+00  3.25501215e+00
  3.26329668e+00  3.27063407e+00  3.27253935e+00  3.28267061e+00
  3.28378116e+00  3.29031461e+00  3.29339738e+00  3.29434326e+00
  3.30758057e+00  3.30975788e+00  3.32622489e+00  3.33459765e+00
  3.33938519e+00  3.34580432e+00  3.35153037e+00  3.35563126e+00
  3.36359548e+00  3.36901000e+00  3.38165626e+00  3.38702957e+00
  3.39353659e+00  3.39783510e+00  3.40463937e+00  3.41944381e+00
  3.42093215e+00  3.43615321e+00  3.44600181e+00  3.44926646e+00
  3.45781474e+00  3.46426455e+00  3.47224309e+00  3.47390820e+00
  3.48422490e+00  3.49150281e+00  3.49666957e+00  3.50609390e+00
  3.51380801e+00  3.52041359e+00  3.53050640e+00  3.53400335e+00
  3.54070565e+00  3.54662312e+00  3.55354975e+00  3.55963786e+00
  3.56584852e+00  3.57088572e+00  3.57707082e+00  3.58243376e+00
  3.58962390e+00  3.59862304e+00  3.60786210e+00  3.61393312e+00
  3.62944068e+00  3.63666621e+00  3.64271171e+00  3.65160463e+00
  3.66177100e+00  3.67301382e+00  3.67934825e+00  3.69435948e+00
  3.70304576e+00  3.70810129e+00  3.71853641e+00  3.72601755e+00
  3.74053206e+00  3.76009222e+00  3.78915358e+00  3.80418048e+00
  3.81226562e+00  3.82027782e+00  3.84010933e+00  3.84972528e+00
  3.85174181e+00  3.86357994e+00  3.87458199e+00  3.89079467e+00
  3.89874546e+00  3.91793927e+00  3.92076307e+00  3.92629170e+00
  3.94559018e+00  3.95463261e+00  3.95925176e+00  3.97191028e+00
  3.97658352e+00  3.99655933e+00  4.01883000e+00  4.03309634e+00
  4.06167009e+00  4.06996264e+00  4.08236064e+00  4.08882326e+00
  4.11061900e+00  4.12466987e+00  4.13702179e+00  4.14135796e+00
  4.17341793e+00  4.19446285e+00  4.20497774e+00  4.21308868e+00
  4.22567244e+00  4.22593644e+00  4.24953463e+00  4.26827874e+00
  4.27519033e+00  4.28295597e+00  4.29326207e+00  4.30170249e+00
  4.31589690e+00  4.32537892e+00  4.33088990e+00  4.34184129e+00
  4.35418524e+00  4.35878722e+00  4.36196316e+00  4.38237076e+00
  4.39680663e+00  4.40054647e+00  4.41421376e+00  4.41915718e+00
  4.43250581e+00  4.43936291e+00  4.45633145e+00  4.46156223e+00
  4.47282446e+00  4.49601688e+00  4.50450088e+00  4.50818162e+00
  4.51625810e+00  4.56925089e+00  4.58928320e+00  4.59607918e+00
  4.62338954e+00  4.64611010e+00  4.65598459e+00  4.66036994e+00
  4.67225654e+00  4.69024523e+00  4.69726051e+00  4.70442762e+00
  4.72878845e+00  4.75360946e+00  4.76674532e+00  4.78008311e+00
  4.79179874e+00  4.81001938e+00  4.81502932e+00  4.82253659e+00
  4.83653924e+00  4.85483596e+00  4.86182417e+00  4.88963273e+00
  4.89916319e+00  4.91841678e+00  4.92240731e+00  4.92966199e+00
  4.94663583e+00  4.94911880e+00  4.95743836e+00  4.96006362e+00
  4.99036977e+00  4.99658406e+00  5.00647027e+00  5.01233589e+00
  5.02095625e+00  5.04015143e+00  5.05022418e+00  5.07259961e+00
  5.09158733e+00  5.09257101e+00  5.13190544e+00  5.14073020e+00
  5.15144326e+00  5.16245348e+00  5.17817425e+00  5.19162417e+00
  5.20872431e+00  5.22384503e+00  5.24033956e+00  5.25276540e+00
  5.25520695e+00  5.26481453e+00  5.29596559e+00  5.29604783e+00
  5.31192966e+00  5.32735799e+00  5.33111352e+00  5.34214091e+00
  5.36413452e+00  5.36955102e+00  5.41338372e+00  5.42166561e+00
  5.44490522e+00  5.45900196e+00  5.47713887e+00  5.48191175e+00
  5.50465066e+00  5.52486941e+00  5.53887503e+00  5.57268196e+00
  5.59692363e+00  5.60961558e+00  5.62116001e+00  5.63402249e+00
  5.66265073e+00  5.67611471e+00  5.71065958e+00  5.73724372e+00
  5.80205352e+00  5.82336901e+00  5.83128963e+00  5.85483417e+00
  5.88727215e+00  5.98596312e+00  6.03126489e+00  6.03678693e+00
  6.13774595e+00  6.24273117e+00  6.30192846e+00  6.36276093e+00
  2.23808178e+01  2.25063692e+01  2.26507928e+01  2.27238670e+01
  2.27400624e+01  2.27770339e+01  2.27851092e+01  2.28668748e+01
  2.28927737e+01  2.29590464e+01  2.30629780e+01  2.31656976e+01
  2.32192983e+01  2.32816715e+01  2.34588143e+01  2.37092421e+01
  3.20098509e+01  3.20193710e+01  3.21128777e+01  3.21284381e+01
  3.25461157e+01]
nelec by numeric integration = 145.9999718554762
    CPU time for vxc    103.97 sec, wall time      7.51 sec
    CPU time for df vj and vk    233.46 sec, wall time     17.94 sec
    CPU time for df vj and vk    174.96 sec, wall time     11.39 sec
E1 = -4061.6232294947704  Ecoul = 1858.758033214184  Exc = -126.81580390313889
Extra cycle  E= -892.589508543363  delta_E= 4.55e-13  |g|= 5.61e-06  |ddm|= 1.56e-05
    CPU time for scf_cycle   1967.35 sec, wall time    176.67 sec
    CPU time for SCF   1967.35 sec, wall time    176.67 sec
converged SCF energy = -892.589508543363
SCF Done after  176.6716 seconds
after SCF memory used: 7790.78515625 MB
Converting <class 'pyscf.df.df_jk.density_fit.<locals>.DFHF'> to RHF
Converting <class 'pyscf.df.df_jk.density_fit.<locals>.DFHF'> to RHF
a_x = 0.56
beta = 8.0
alpha = 4.58
hdiag (48764,)
n_occ =  73
n_vir =  668
max_vir =  181
Q-Gamma tensors building time = 20.0064
after Q matrix memory used: 8108.29296875 MB
-------------------------------------------------------------------
|---------------   In-house Developed Davidson Starts   -----------|
Residual conv = 1e-05
Number of excited states = 1
Initial guess:   sTDA
Preconditioner:  sTDA
A matrix size =  48764 * 48764
sTDA nstate = 2
sTDA A diagonalization: threshold = 0.001 ; in 8 steps  0.2635 seconds
sTDA excitation energies:
[3.94876903 4.45835205]
Intial guess time: 0.27 seconds
    CPU time for df vj and vk    462.79 sec, wall time     34.16 sec
    CPU time for df vj and vk    361.10 sec, wall time     23.84 sec
Iteration  0
subspace size:  2
maximum residual norm 0.13737026994506768
sTDA Preconditioning Done after  11 steps;  0.2527 seconds
subgencost 0.0167 6.63 %
mvcost 0.1247 49.34 %
GScost 0.0156 6.16 %
subcost 0.0038 1.49 %
m,new_m 2 3
    CPU time for df vj and vk    233.22 sec, wall time     18.75 sec
    CPU time for df vj and vk    174.32 sec, wall time     11.40 sec
new generated guesses: 1
Iteration  1
subspace size:  3
maximum residual norm 0.04601120989312883
sTDA Preconditioning Done after  10 steps;  0.239 seconds
subgencost 0.0218 9.12 %
mvcost 0.1481 61.98 %
GScost 0.0199 8.34 %
subcost 0.0046 1.91 %
m,new_m 3 4
    CPU time for df vj and vk    234.40 sec, wall time     18.20 sec
    CPU time for df vj and vk    180.86 sec, wall time     12.03 sec
new generated guesses: 1
Iteration  2
subspace size:  4
maximum residual norm 0.017983114977719365
sTDA Preconditioning Done after  10 steps;  0.1767 seconds
subgencost 0.016 9.05 %
mvcost 0.112 63.37 %
GScost 0.0152 8.61 %
subcost 0.0036 2.01 %
m,new_m 4 5
    CPU time for df vj and vk    233.46 sec, wall time     18.43 sec
    CPU time for df vj and vk    182.87 sec, wall time     12.16 sec
new generated guesses: 1
Iteration  3
subspace size:  5
maximum residual norm 0.005758549347141605
sTDA Preconditioning Done after  10 steps;  0.2998 seconds
subgencost 0.0266 8.89 %
mvcost 0.1846 61.56 %
GScost 0.0261 8.7 %
subcost 0.0057 1.9 %
m,new_m 5 6
    CPU time for df vj and vk    237.09 sec, wall time     18.67 sec
    CPU time for df vj and vk    184.25 sec, wall time     12.13 sec
new generated guesses: 1
Iteration  4
subspace size:  6
maximum residual norm 0.0016927875934573636
sTDA Preconditioning Done after  10 steps;  0.1622 seconds
subgencost 0.014 8.63 %
mvcost 0.1023 63.05 %
GScost 0.0122 7.5 %
subcost 0.003 1.83 %
m,new_m 6 7
    CPU time for df vj and vk    241.26 sec, wall time     18.61 sec
    CPU time for df vj and vk    184.40 sec, wall time     12.17 sec
new generated guesses: 1
Iteration  5
subspace size:  7
maximum residual norm 0.0004735122570087848
sTDA Preconditioning Done after  6 steps;  0.0928 seconds
subgencost 0.0064 6.91 %
mvcost 0.0575 62.01 %
GScost 0.0057 6.13 %
subcost 0.0018 1.98 %
m,new_m 7 8
    CPU time for df vj and vk    232.43 sec, wall time     18.27 sec
    CPU time for df vj and vk    186.16 sec, wall time     12.25 sec
new generated guesses: 1
Iteration  6
subspace size:  8
maximum residual norm 0.0001230921005936079
sTDA Preconditioning Done after  9 steps;  0.1402 seconds
subgencost 0.0131 9.33 %
mvcost 0.0891 63.57 %
GScost 0.0107 7.6 %
subcost 0.0028 1.99 %
m,new_m 8 9
    CPU time for df vj and vk    232.98 sec, wall time     18.14 sec
    CPU time for df vj and vk    178.23 sec, wall time     11.58 sec
new generated guesses: 1
Iteration  7
subspace size:  9
maximum residual norm 3.640624927871727e-05
sTDA Preconditioning Done after  9 steps;  0.172 seconds
subgencost 0.0147 8.54 %
mvcost 0.1112 64.67 %
GScost 0.0132 7.69 %
subcost 0.0033 1.9 %
m,new_m 9 10
    CPU time for df vj and vk    232.56 sec, wall time     17.71 sec
    CPU time for df vj and vk    178.59 sec, wall time     11.66 sec
new generated guesses: 1
Iteration  8
subspace size:  10
maximum residual norm 1.0852213568527269e-05
sTDA Preconditioning Done after  7 steps;  0.2261 seconds
subgencost 0.0161 7.11 %
mvcost 0.1453 64.26 %
GScost 0.015 6.64 %
subcost 0.004 1.78 %
m,new_m 10 11
    CPU time for df vj and vk    233.00 sec, wall time     18.38 sec
    CPU time for df vj and vk    180.02 sec, wall time     11.70 sec
new generated guesses: 1
Iteration  9
subspace size:  11
maximum residual norm 3.940679245578566e-06
Davidson procedure aborted
Davidson done after  414.1631 seconds
Total steps = 10
Final subspace shape =  (11, 11)
Preconditioning time: 1.7718 0.43 %
In-house Davidson time: 414.1689 seconds
Excited State energies (eV) =
[4.22408611]
|---------------   In-house Developed Davidson Done   -----------|
-------------------------------------------------------------------
|---------------   In-house Developed Davidson Starts   -----------|
Residual conv = 1e-05
Number of excited states = 1
Initial guess:   Adiag
Preconditioner:  Adiag
A matrix size =  48764 * 48764
Intial guess time: 0.0056 seconds
    CPU time for df vj and vk    464.70 sec, wall time     34.87 sec
    CPU time for df vj and vk    359.08 sec, wall time     23.56 sec
Iteration  0
subspace size:  2
maximum residual norm 0.11756859193066085
m,new_m 2 3
    CPU time for df vj and vk    234.79 sec, wall time     18.04 sec
    CPU time for df vj and vk    184.48 sec, wall time     12.03 sec
new generated guesses: 1
Iteration  1
subspace size:  3
maximum residual norm 0.04347582598802698
m,new_m 3 4
    CPU time for df vj and vk    235.88 sec, wall time     18.12 sec
    CPU time for df vj and vk    176.73 sec, wall time     11.49 sec
new generated guesses: 1
Iteration  2
subspace size:  4
maximum residual norm 0.017540222341984803
m,new_m 4 5
    CPU time for df vj and vk    227.04 sec, wall time     17.37 sec
    CPU time for df vj and vk    185.64 sec, wall time     12.23 sec
new generated guesses: 1
Iteration  3
subspace size:  5
maximum residual norm 0.01015744409320652
m,new_m 5 6
    CPU time for df vj and vk    238.35 sec, wall time     18.74 sec
    CPU time for df vj and vk    181.17 sec, wall time     11.91 sec
new generated guesses: 1
Iteration  4
subspace size:  6
maximum residual norm 0.005533635726905514
m,new_m 6 7
    CPU time for df vj and vk    240.27 sec, wall time     18.93 sec
    CPU time for df vj and vk    180.16 sec, wall time     11.77 sec
new generated guesses: 1
Iteration  5
subspace size:  7
maximum residual norm 0.0030004907819551545
m,new_m 7 8
    CPU time for df vj and vk    246.32 sec, wall time     20.02 sec
    CPU time for df vj and vk    183.37 sec, wall time     12.08 sec
new generated guesses: 1
Iteration  6
subspace size:  8
maximum residual norm 0.0017293725139507447
m,new_m 8 9
    CPU time for df vj and vk    233.81 sec, wall time     17.85 sec
    CPU time for df vj and vk    179.80 sec, wall time     11.89 sec
new generated guesses: 1
Iteration  7
subspace size:  9
maximum residual norm 0.0011071911225754814
m,new_m 9 10
    CPU time for df vj and vk    245.30 sec, wall time     19.60 sec
    CPU time for df vj and vk    184.72 sec, wall time     12.18 sec
new generated guesses: 1
Iteration  8
subspace size:  10
maximum residual norm 0.0005412217225532429
m,new_m 10 11
    CPU time for df vj and vk    232.04 sec, wall time     17.84 sec
    CPU time for df vj and vk    175.22 sec, wall time     11.38 sec
new generated guesses: 1
Iteration  9
subspace size:  11
maximum residual norm 0.0003582051499548659
m,new_m 11 12
    CPU time for df vj and vk    233.36 sec, wall time     17.91 sec
    CPU time for df vj and vk    181.87 sec, wall time     11.94 sec
new generated guesses: 1
Iteration  10
subspace size:  12
maximum residual norm 0.00020101654682199148
m,new_m 12 13
    CPU time for df vj and vk    233.75 sec, wall time     18.17 sec
    CPU time for df vj and vk    177.71 sec, wall time     11.59 sec
new generated guesses: 1
Iteration  11
subspace size:  13
maximum residual norm 0.00014730070675806467
m,new_m 13 14
    CPU time for df vj and vk    230.53 sec, wall time     17.85 sec
    CPU time for df vj and vk    176.71 sec, wall time     11.53 sec
new generated guesses: 1
Iteration  12
subspace size:  14
maximum residual norm 8.028347623033833e-05
m,new_m 14 15
    CPU time for df vj and vk    232.05 sec, wall time     17.80 sec
    CPU time for df vj and vk    182.90 sec, wall time     12.02 sec
new generated guesses: 1
Iteration  13
subspace size:  15
maximum residual norm 3.679160601086527e-05
m,new_m 15 16
    CPU time for df vj and vk    240.67 sec, wall time     18.69 sec
    CPU time for df vj and vk    187.77 sec, wall time     12.42 sec
new generated guesses: 1
Iteration  14
subspace size:  16
maximum residual norm 1.7952988346310267e-05
m,new_m 16 17
    CPU time for df vj and vk    235.50 sec, wall time     18.79 sec
    CPU time for df vj and vk    181.05 sec, wall time     11.88 sec
new generated guesses: 1
Iteration  15
subspace size:  17
maximum residual norm 6.540957977270178e-06
Davidson procedure aborted
Davidson done after  642.1192 seconds
Total steps = 16
Final subspace shape =  (17, 17)
Preconditioning time: 0.0279 0.0 %
In-house Davidson time: 642.124 seconds
Excited State energies (eV) =
[4.22408612]
|---------------   In-house Developed Davidson Done   -----------|
xyzfile = 36_DAPI.xyz
checkfile = True
method = RKS
functional = wb97x
basis_set = def2-tzvp
density_fit = True
grid_level = 3
nstates = 1
pytd = False
TDA = True
TDDFT = False
dynpol = False
dynpol_omega = []
stapol = False
sTDA = False
sTDDFT = False
Truncate_test = False
truncate_virtual = 40.0
TDA_options = [0, 1]
TDDFT_options = [0]
dynpol_options = [0]
stapol_options = [0]
TDA_tolerance = 1e-05
TDDFT_tolerance = 1e-05
dynpol_tolerance = 1e-05
stapol_tolerance = 1e-05
max = 35
TDA_initialTOL = 0.001
TDDFT_initialTOL = 0.001
dynpol_initprecTOL = 0.01
stapol_initprecTOL = 0.01
TDA_precondTOL = 0.01
TDDFT_precondTOL = 0.01
TDA_extrainitial = 8
TDDFT_extrainitial = 8
TDDFT_extrainitial_3n = False
eigensolver_tol = 1e-05
memory = 50000
verbose = 5
beta = []
alpha = []
