curpath /scratch/pbsjobs/job.16219530.hpc
lib.num_threads() =  20
at beginning memory used: 0.05 GB
mol.max_memory 50000


System: uname_result(system='Linux', node='compt210', release='3.10.0-1127.el7.x86_64', version='#1 SMP Tue Feb 18 16:39:12 EST 2020', machine='x86_64', processor='x86_64')  Threads 20
Python 3.7.0 (default, Aug 23 2018, 14:24:33) 
[GCC 6.3.0]
numpy 1.18.1  scipy 1.4.1
Date: Mon Aug 30 18:59:46 2021
PySCF version 1.7.4
PySCF path  /home/zzz6/.local/lib/python3.7/site-packages/pyscf

[CONFIG] conf_file None
[INPUT] verbose = 5
[INPUT] max_memory = 50000 
[INPUT] num. atoms = 43
[INPUT] num. electrons = 158
[INPUT] charge = 0
[INPUT] spin (= nelec alpha-beta = 2S) = 0
[INPUT] symmetry False subgroup None
[INPUT] Mole.unit = angstrom
[INPUT]  1 C     -6.253659823309  -1.430674644396   4.882532185649 AA  -11.817704342249  -2.703583251267   9.226648625252 Bohr
[INPUT]  2 C     -5.179284710792  -0.878666118637   5.552546956623 AA   -9.787429624543  -1.660438319159  10.492793041805 Bohr
[INPUT]  3 C     -4.129448994060  -0.258027694899   4.820500142333 AA   -7.803527644134  -0.487601675912   9.109425052437 Bohr
[INPUT]  4 C     -5.321551762962  -0.792191755854   2.732011979527 AA  -10.056275389695  -1.497025456703   5.162754410338 Bohr
[INPUT]  5 C     -6.327587783794  -1.387845847739   3.454553230157 AA  -11.957407940515  -2.622648555342   6.528159487727 Bohr
[INPUT]  6 C     -3.114741728159   0.409581104711   2.919549967452 AA   -5.886008814975   0.773996113700   5.517149845467 Bohr
[INPUT]  7 C     -2.371557389338   0.750655176049   4.095914541615 AA   -4.481593954537   1.418532696720   7.740156713276 Bohr
[INPUT]  8 C     -1.144034229785   1.439607246748   3.961767161096 AA   -2.161911371422   2.720463423293   7.486654903767 Bohr
[INPUT]  9 H     -0.568652542920   1.711735051374   4.851316238774 AA   -1.074597566156   3.234710444915   9.167659034938 Bohr
[INPUT] 10 C     -0.718280728546   1.746174524479   2.672355675068 AA   -1.357353857505   3.299791616958   5.050020333306 Bohr
[INPUT] 11 C     -1.473766191945   1.396304562324   1.520311269787 AA   -2.785014474420   2.638633209273   2.872971923987 Bohr
[INPUT] 12 C     -2.690896647053   0.723052327698   1.618256629315 AA   -5.085057692441   1.366370873079   3.058061828667 Bohr
[INPUT] 13 H     -7.061293778033  -1.908006395625   5.446076304252 AA  -13.343911325577  -3.605609531650  10.291592668520 Bohr
[INPUT] 14 H     -5.096936424993  -0.896942039083   6.641699261816 AA   -9.631813917557  -1.694974803476  12.550992606558 Bohr
[INPUT] 15 H     -5.310456743110  -0.722269775420   1.641395275051 AA  -10.035308840828  -1.364892063595   3.101787532001 Bohr
[INPUT] 16 H     -7.177945205230  -1.824622786871   2.925068708962 AA  -13.564350575020  -3.448037347827   5.527578755473 Bohr
[INPUT] 17 H     -3.276472685953   0.458303076432   0.731767762905 AA   -6.191636031068   0.866067296502   1.382840658677 Bohr
[INPUT] 18 N     -4.250632276772  -0.241767461573   3.394011469925 AA   -8.032530859335  -0.456874288204   6.413752141791 Bohr
[INPUT] 19 N     -3.014782274075   0.331153017127   5.239982897435 AA   -5.697112823195   0.625788507694   9.902132573558 Bohr
[INPUT] 20 C     -0.751150521109   1.832887156545   0.258729778285 AA   -1.419468763220   3.463654743104   0.488928421228 Bohr
[INPUT] 21 C      0.566487708487   2.444668357975   2.260847675691 AA    1.070506621974   4.619753661963   4.272382916415 Bohr
[INPUT] 22 N      0.217528653346   2.810672051641   0.849774870573 AA    0.411069579070   5.311400403571   1.605841772921 Bohr
[INPUT] 23 O      1.388710149319   2.936372992154   0.037790501274 AA    2.624281848617   5.548940754740   0.071413697518 Bohr
[INPUT] 24 C      1.503798713169   4.274878354969  -0.437154214328 AA    2.841767714362   8.078349306722  -0.826101739278 Bohr
[INPUT] 25 H      2.420872015897   4.289162137769  -1.050002319296 AA    4.574785092669   8.105341744238  -1.984216813627 Bohr
[INPUT] 26 H      0.637200080753   4.564459520573  -1.060262391455 AA    1.204133639175   8.625578400547  -2.003605540026 Bohr
[INPUT] 27 H      1.602672789185   4.997530492072   0.393996950551 AA    3.028612638853   9.443963929179   0.744546330455 Bohr
[INPUT] 28 C      0.831559106127   3.736794903629   3.052677264965 AA    1.571418966968   7.061518951529   5.768723977470 Bohr
[INPUT] 29 H      0.986595113004   3.517056561114   4.123592829429 AA    1.864394559412   6.646273665110   7.792461096841 Bohr
[INPUT] 30 H      1.742911133647   4.231969339798   2.674930838316 AA    3.293624702048   7.997263019775   5.054886686571 Bohr
[INPUT] 31 H     -0.019938737305   4.427485282050   2.945569908685 AA   -0.037678752777   8.366734603618   5.566320408175 Bohr
[INPUT] 32 C      1.780713684368   1.495190817392   2.387565858715 AA    3.365061169721   2.825501148835   4.511845577334 Bohr
[INPUT] 33 H      1.996487672011   1.313898482039   3.454346996990 AA    3.772814911171   2.482908286536   6.527769763524 Bohr
[INPUT] 34 H      1.588215323545   0.522534177954   1.908974634073 AA    3.001291988337   0.987446487058   3.607439237140 Bohr
[INPUT] 35 H      2.663918911881   1.951322804440   1.912297097448 AA    5.034077161504   3.687465681010   3.613717782977 Bohr
[INPUT] 36 C     -1.659557465454   2.581190863947  -0.732895461579 AA   -3.136109097686   4.877743808090  -1.384971700320 Bohr
[INPUT] 37 H     -2.120854027725   3.451989903189  -0.240473658326 AA   -4.007833262580   6.523315501791  -0.454429354408 Bohr
[INPUT] 38 H     -1.068230742259   2.931481468724  -1.596611643713 AA   -2.018663540711   5.539697115126  -3.017158733910 Bohr
[INPUT] 39 H     -2.455013659422   1.918411003139  -1.118125310971 AA   -4.639303448375   3.625271390285  -2.112950610680 Bohr
[INPUT] 40 C     -0.085286256500   0.629881753212  -0.450560851928 AA   -0.161167666975   1.190304004431  -0.851436612595 Bohr
[INPUT] 41 H      0.500597569333   0.017504938395   0.251991026186 AA    0.945992304662   0.033079539393   0.476194025340 Bohr
[INPUT] 42 H     -0.863581409978  -0.012514491712  -0.897585015024 AA   -1.631932351124  -0.023648961924  -1.696189851910 Bohr
[INPUT] 43 H      0.586217116509   0.989578562147  -1.246615022304 AA    1.107789799735   1.870032461199  -2.355760974924 Bohr
[INPUT] ---------------- BASIS SET ---------------- 
[INPUT] l, kappa, [nprim/nctr], expnt,             c_1 c_2 ...
[INPUT] C
[INPUT] 0    0    [6    /1   ]  13575.349682      0.00022245814352
                                2035.233368       0.0017232738252
                                463.22562359      0.0089255715314
                                131.20019598      0.035727984502
                                42.853015891      0.11076259931
                                15.584185766      0.24295627626
[INPUT] 0    0    [2    /1   ]  6.2067138508      0.41440263448
                                2.5764896527      0.23744968655
[INPUT] 0    0    [1    /1   ]  0.57696339419        1
[INPUT] 0    0    [1    /1   ]  0.22972831358        1
[INPUT] 0    0    [1    /1   ]  0.095164440028       1
[INPUT] 1    0    [4    /1   ]  34.697232244      0.0053333657805
                                7.9582622826      0.035864109092
                                2.3780826883      0.14215873329
                                0.81433208183     0.34270471845
[INPUT] 1    0    [1    /1   ]  0.28887547253        1
[INPUT] 1    0    [1    /1   ]  0.10056823671        1
[INPUT] 2    0    [1    /1   ]  1.097                1
[INPUT] 2    0    [1    /1   ]  0.318                1
[INPUT] 3    0    [1    /1   ]  0.761                1
[INPUT] H
[INPUT] 0    0    [3    /1   ]  34.061341         0.0060251978
                                5.1235746         0.045021094
                                1.1646626         0.20189726
[INPUT] 0    0    [1    /1   ]  0.32723041           1
[INPUT] 0    0    [1    /1   ]  0.10307241           1
[INPUT] 1    0    [1    /1   ]  0.8                  1
[INPUT] O
[INPUT] 0    0    [6    /1   ]  27032.382631      0.00021726302465
                                4052.3871392      0.0016838662199
                                922.3272271       0.0087395616265
                                261.24070989      0.035239968808
                                85.354641351      0.11153519115
                                31.035035245      0.25588953961
[INPUT] 0    0    [2    /1   ]  12.260860728      0.39768730901
                                4.9987076005      0.2462784943
[INPUT] 0    0    [1    /1   ]  1.1703108158         1
[INPUT] 0    0    [1    /1   ]  0.46474740994        1
[INPUT] 0    0    [1    /1   ]  0.18504536357        1
[INPUT] 1    0    [4    /1   ]  63.274954801      0.0060685103418
                                14.627049379      0.041912575824
                                4.4501223456      0.16153841088
                                1.5275799647      0.35706951311
[INPUT] 1    0    [1    /1   ]  0.52935117943        1
[INPUT] 1    0    [1    /1   ]  0.1747842127         1
[INPUT] 2    0    [1    /1   ]  2.314                1
[INPUT] 2    0    [1    /1   ]  0.645                1
[INPUT] 3    0    [1    /1   ]  1.428                1
[INPUT] N
[INPUT] 0    0    [6    /1   ]  19730.800647      0.00021887984991
                                2957.8958745      0.0016960708803
                                673.22133595      0.0087954603538
                                190.68249494      0.035359382605
                                62.295441898      0.11095789217
                                22.654161182      0.24982972552
[INPUT] 0    0    [2    /1   ]  8.9791477428      0.40623896148
                                3.686300237       0.24338217176
[INPUT] 0    0    [1    /1   ]  0.84660076805        1
[INPUT] 0    0    [1    /1   ]  0.33647133771        1
[INPUT] 0    0    [1    /1   ]  0.13647653675        1
[INPUT] 1    0    [4    /1   ]  49.20038051       0.0055552416751
                                11.346790537      0.038052379723
                                3.4273972411      0.14953671029
                                1.1785525134      0.3494930523
[INPUT] 1    0    [1    /1   ]  0.41642204972        1
[INPUT] 1    0    [1    /1   ]  0.14260826011        1
[INPUT] 2    0    [1    /1   ]  1.654                1
[INPUT] 2    0    [1    /1   ]  0.469                1
[INPUT] 3    0    [1    /1   ]  1.093                1

nuclear repulsion = 1807.15740948176
number of shells = 326
number of NR pGTOs = 1180
number of NR cGTOs = 808
basis = def2-tzvp
ecp = {}
CPU time:         2.31
RKS
Density fitting turned on
Molecule built
Calculating SCF Energy...


******** <class 'pyscf.df.df_jk.density_fit.<locals>.DFHF'> ********
method = DFHF-RKS-RHF
initial guess = chkfile
damping factor = 0
level_shift factor = 0
DIIS = <class 'pyscf.scf.diis.CDIIS'>
diis_start_cycle = 1
diis_space = 8
SCF conv_tol = 1e-10
SCF conv_tol_grad = None
SCF max_cycles = 50
direct_scf = True
direct_scf_tol = 1e-13
chkfile to save SCF result = 43_PyrImid_TMIO5_pbe0.chk
max_memory 50000 MB (current use 55 MB)
XC functionals = pbe0
small_rho_cutoff = 1e-07
radial grids: 
    Treutler-Ahlrichs [JCP 102, 346 (1995); DOI:10.1063/1.469408] (M4) radial grids
    
becke partition: Becke, JCP 88, 2547 (1988); DOI:10.1063/1.454033
pruning grids: <function nwchem_prune at 0x7f40bd978e18>
grids dens level: 3
symmetrized grids: False
atomic radii adjust function: <function treutler_atomic_radii_adjust at 0x7f40bd978d90>
Set gradient conv threshold to 1e-05
atom C rad-grids = 75, ang-grids = [ 50  50  50  50  50  50  50  50  50  50  50  50  50  50  50  50  50  50
  50  50  50  50  50  86  86  86  86  86  86  86  86  86  86 266 266 266
 266 266 266 266 302 302 302 302 302 302 302 302 302 302 302 302 302 302
 302 302 302 302 302 302 266 266 266 266 266 266 266 266 266 266 266 266
 266 266 266]
atom H rad-grids = 50, ang-grids = [ 50  50  50  50  50  50  50  50  50  50  50  50  50  50  86  86  86  86
 266 266 266 266 302 302 302 302 302 302 302 302 302 302 302 302 302 266
 266 266 266 266 266 266 266 266 266 266 266 266 266 266]
atom N rad-grids = 75, ang-grids = [ 50  50  50  50  50  50  50  50  50  50  50  50  50  50  50  50  50  50
  50  50  50  50  50  86  86  86  86  86  86  86  86  86 266 266 266 266
 266 266 266 302 302 302 302 302 302 302 302 302 302 302 302 302 302 302
 302 302 302 302 266 266 266 266 266 266 266 266 266 266 266 266 266 266
 266 266 266]
atom O rad-grids = 75, ang-grids = [ 50  50  50  50  50  50  50  50  50  50  50  50  50  50  50  50  50  50
  50  50  50  50  86  86  86  86  86  86  86  86  86 266 266 266 266 266
 266 266 302 302 302 302 302 302 302 302 302 302 302 302 302 302 302 302
 302 302 302 266 266 266 266 266 266 266 266 266 266 266 266 266 266 266
 266 266 266]
tot grids = 517140
Drop grids 97565
    CPU time for setting up grids     79.83 sec, wall time      4.51 sec
nelec by numeric integration = 158.00010095926132
    CPU time for vxc    105.83 sec, wall time      5.96 sec
******** <class 'pyscf.df.df.DF'> ********
auxbasis = None
max_memory = 50000
_cderi_to_save = /tmp/job.16219530.hpc/tmpl_iy3w1w
Default auxbasis def2-tzvp-jkfit is used for C def2-tzvp
Default auxbasis def2-tzvp-jkfit is used for H def2-tzvp
Default auxbasis def2-tzvp-jkfit is used for O def2-tzvp
Default auxbasis def2-tzvp-jkfit is used for N def2-tzvp
num shells = 676, num cGTOs = 2036
size of aux basis 2036
int3c2e [1/1], AO [0:326], nrow = 326836
    CPU time for cholesky_eri    108.56 sec, wall time     19.91 sec
    CPU time for df vj and vk    277.83 sec, wall time     31.62 sec
E1 = -4861.940806607954  Ecoul = 2251.30903032902  Exc = -133.7589144395568
init E= -937.233281236734
cond(S) = 1945850.4467873306
    CPU time for initialize scf    470.89 sec, wall time     42.68 sec
  HOMO = -0.215880472749857  LUMO = -0.0606989867688498
  mo_energy =
[-1.92345131e+01 -1.44716644e+01 -1.44197204e+01 -1.43659387e+01
 -1.03007676e+01 -1.02929904e+01 -1.02703537e+01 -1.02696447e+01
 -1.02674441e+01 -1.02607762e+01 -1.02573667e+01 -1.02547516e+01
 -1.02493103e+01 -1.02484675e+01 -1.02435399e+01 -1.02369818e+01
 -1.02355183e+01 -1.02301940e+01 -1.02134330e+01 -1.02105886e+01
 -1.02098503e+01 -1.02082257e+01 -1.09311579e+00 -1.05858346e+00
 -9.37967726e-01 -9.28238917e-01 -8.72621050e-01 -8.43632090e-01
 -8.27723845e-01 -7.89416141e-01 -7.67413577e-01 -7.54899433e-01
 -7.44525881e-01 -7.09658459e-01 -7.01904638e-01 -6.98176108e-01
 -6.71903741e-01 -6.48486552e-01 -6.38549575e-01 -6.16510663e-01
 -5.99562401e-01 -5.68724642e-01 -5.51962790e-01 -5.33930704e-01
 -5.15473190e-01 -5.02345911e-01 -4.95495854e-01 -4.85636325e-01
 -4.82052134e-01 -4.79903177e-01 -4.66874076e-01 -4.61538367e-01
 -4.59913108e-01 -4.46281169e-01 -4.43121151e-01 -4.29613500e-01
 -4.25578612e-01 -4.18696814e-01 -4.14213807e-01 -4.09340378e-01
 -4.02822405e-01 -3.94633977e-01 -3.91450532e-01 -3.88900967e-01
 -3.80485905e-01 -3.67841480e-01 -3.67355521e-01 -3.62662449e-01
 -3.52058237e-01 -3.47528215e-01 -3.40308092e-01 -3.34019420e-01
 -3.26966346e-01 -2.89853076e-01 -2.79436010e-01 -2.77632464e-01
 -2.44293566e-01 -2.32643307e-01 -2.15880473e-01 -6.06989868e-02
 -1.41092733e-02  6.22880578e-03  2.91117557e-02  3.53594465e-02
  4.54291478e-02  5.76836754e-02  6.94317175e-02  7.28306252e-02
  8.16226387e-02  8.27134734e-02  8.83027803e-02  9.32121281e-02
  1.00360927e-01  1.02574626e-01  1.07698381e-01  1.10512803e-01
  1.14605811e-01  1.18012553e-01  1.24160136e-01  1.27096602e-01
  1.33485940e-01  1.34341405e-01  1.36937175e-01  1.41473174e-01
  1.45465388e-01  1.46798766e-01  1.54243824e-01  1.62822942e-01
  1.65864275e-01  1.71236038e-01  1.72786563e-01  1.76050255e-01
  1.81833521e-01  1.86230524e-01  1.88491606e-01  1.89907237e-01
  1.95251220e-01  1.99575441e-01  2.04028270e-01  2.10640285e-01
  2.14243739e-01  2.16460397e-01  2.22888177e-01  2.25238166e-01
  2.33855809e-01  2.37813402e-01  2.40196864e-01  2.48573027e-01
  2.53956219e-01  2.57698792e-01  2.60951644e-01  2.70133557e-01
  2.74609374e-01  2.76965414e-01  2.80161736e-01  2.88756461e-01
  2.93848045e-01  2.99002281e-01  3.01317123e-01  3.11669501e-01
  3.15581793e-01  3.20962761e-01  3.26045469e-01  3.28880340e-01
  3.34114323e-01  3.38284558e-01  3.43664486e-01  3.45876769e-01
  3.47234131e-01  3.56188412e-01  3.62111576e-01  3.65122212e-01
  3.69253312e-01  3.71805052e-01  3.72926409e-01  3.82098515e-01
  3.86050860e-01  3.90413095e-01  3.95504944e-01  4.03323138e-01
  4.05219195e-01  4.08631509e-01  4.11241089e-01  4.14225907e-01
  4.16269190e-01  4.20535866e-01  4.28808025e-01  4.32558381e-01
  4.40339308e-01  4.46485902e-01  4.47458623e-01  4.48339225e-01
  4.52566001e-01  4.54671541e-01  4.57392989e-01  4.63317670e-01
  4.66666021e-01  4.68534834e-01  4.73866730e-01  4.75612456e-01
  4.76820127e-01  4.79242532e-01  4.85775196e-01  4.88227801e-01
  4.95714335e-01  4.98726291e-01  5.01975970e-01  5.03727779e-01
  5.09007728e-01  5.13866666e-01  5.21537427e-01  5.22934609e-01
  5.28312286e-01  5.36520302e-01  5.41093716e-01  5.45297587e-01
  5.50943473e-01  5.57041879e-01  5.57720751e-01  5.64464367e-01
  5.73966077e-01  5.87580709e-01  5.90714887e-01  5.93489150e-01
  5.98004724e-01  6.07741557e-01  6.15133987e-01  6.20442007e-01
  6.27098498e-01  6.29911258e-01  6.38867351e-01  6.47182935e-01
  6.48464431e-01  6.53626823e-01  6.56499572e-01  6.63503466e-01
  6.67454354e-01  6.73880665e-01  6.77140545e-01  6.82623266e-01
  6.85282091e-01  6.90863950e-01  7.07516305e-01  7.08644094e-01
  7.26600207e-01  7.32450903e-01  7.34902597e-01  7.42577578e-01
  7.45450785e-01  7.47213322e-01  7.48816344e-01  7.57842082e-01
  7.60681506e-01  7.78704427e-01  7.80769114e-01  7.97516837e-01
  7.99133451e-01  8.09762114e-01  8.12003872e-01  8.17147396e-01
  8.28003885e-01  8.37914387e-01  8.45885964e-01  8.48722277e-01
  8.54672436e-01  8.61489142e-01  8.71148244e-01  8.72470964e-01
  8.75320880e-01  8.86650287e-01  8.91795379e-01  8.98164994e-01
  9.00737531e-01  9.08095519e-01  9.10342892e-01  9.23925209e-01
  9.24673787e-01  9.33503258e-01  9.40619406e-01  9.54628987e-01
  9.65281526e-01  9.76867273e-01  9.86395485e-01  9.89769929e-01
  9.95097628e-01  1.00536819e+00  1.01031231e+00  1.01731575e+00
  1.02270125e+00  1.03073322e+00  1.04970877e+00  1.05298316e+00
  1.05368269e+00  1.06943636e+00  1.08023647e+00  1.08371764e+00
  1.08440393e+00  1.09213578e+00  1.09761613e+00  1.10594654e+00
  1.10747324e+00  1.12267513e+00  1.12655529e+00  1.13976194e+00
  1.14417594e+00  1.15422280e+00  1.16272567e+00  1.17209338e+00
  1.18084317e+00  1.18779468e+00  1.20072422e+00  1.20759225e+00
  1.22027253e+00  1.22306826e+00  1.22446766e+00  1.23652577e+00
  1.24100987e+00  1.24804946e+00  1.25448731e+00  1.25821614e+00
  1.25958254e+00  1.27176502e+00  1.28263396e+00  1.29781904e+00
  1.30447957e+00  1.31324736e+00  1.31929038e+00  1.32570855e+00
  1.34068073e+00  1.34559457e+00  1.35854757e+00  1.36643348e+00
  1.37202446e+00  1.37827669e+00  1.39005980e+00  1.39353166e+00
  1.40413770e+00  1.40951221e+00  1.42291039e+00  1.43669421e+00
  1.44598848e+00  1.45357988e+00  1.47799068e+00  1.48534534e+00
  1.48946943e+00  1.48992493e+00  1.49928125e+00  1.50266434e+00
  1.50700310e+00  1.51153634e+00  1.51648431e+00  1.51698452e+00
  1.52886665e+00  1.53007972e+00  1.53646848e+00  1.54474744e+00
  1.55044717e+00  1.55105681e+00  1.55686897e+00  1.56546421e+00
  1.57551924e+00  1.57880006e+00  1.58343514e+00  1.58946633e+00
  1.59525608e+00  1.59798275e+00  1.60645352e+00  1.61646616e+00
  1.62136448e+00  1.62237556e+00  1.64054845e+00  1.64384130e+00
  1.65093164e+00  1.65490316e+00  1.66403106e+00  1.67088466e+00
  1.67128744e+00  1.67500715e+00  1.67717125e+00  1.68472419e+00
  1.69320159e+00  1.70176847e+00  1.71286375e+00  1.71799023e+00
  1.72534819e+00  1.72744445e+00  1.73353568e+00  1.74371333e+00
  1.75114203e+00  1.75799286e+00  1.76829763e+00  1.77609942e+00
  1.78460601e+00  1.79661489e+00  1.80071626e+00  1.80340811e+00
  1.81473851e+00  1.82877400e+00  1.82986838e+00  1.83884068e+00
  1.85384497e+00  1.86001092e+00  1.86337819e+00  1.88415865e+00
  1.89246462e+00  1.89812413e+00  1.91133968e+00  1.92397858e+00
  1.93069578e+00  1.93836253e+00  1.94859158e+00  1.95652816e+00
  1.96943360e+00  1.97407053e+00  2.00268981e+00  2.00828651e+00
  2.01849029e+00  2.02119419e+00  2.03451647e+00  2.05019230e+00
  2.05241836e+00  2.05748782e+00  2.06050251e+00  2.07142583e+00
  2.07683242e+00  2.09168126e+00  2.09731488e+00  2.11006374e+00
  2.11971491e+00  2.12342803e+00  2.13712306e+00  2.15252479e+00
  2.15684364e+00  2.16356373e+00  2.16677990e+00  2.17145278e+00
  2.17885692e+00  2.18827660e+00  2.19339929e+00  2.19996300e+00
  2.20762921e+00  2.22158953e+00  2.23058196e+00  2.23499523e+00
  2.24146672e+00  2.24886990e+00  2.26626799e+00  2.27289348e+00
  2.28970747e+00  2.29288313e+00  2.29760640e+00  2.30274581e+00
  2.30859034e+00  2.31414714e+00  2.32490953e+00  2.32880544e+00
  2.33716578e+00  2.34450835e+00  2.35075005e+00  2.35409840e+00
  2.36640582e+00  2.36873129e+00  2.36970394e+00  2.37608682e+00
  2.38343728e+00  2.38872183e+00  2.39421901e+00  2.40008769e+00
  2.40914679e+00  2.41243012e+00  2.42345977e+00  2.43496427e+00
  2.44304250e+00  2.46279510e+00  2.47226643e+00  2.47656516e+00
  2.48164689e+00  2.48440704e+00  2.49970070e+00  2.50641569e+00
  2.52104633e+00  2.52610594e+00  2.52891772e+00  2.53615539e+00
  2.54057424e+00  2.55159810e+00  2.56697212e+00  2.57288421e+00
  2.57671124e+00  2.58125703e+00  2.58790683e+00  2.59574597e+00
  2.59683509e+00  2.60551101e+00  2.61220108e+00  2.61875107e+00
  2.62372651e+00  2.62997525e+00  2.63349238e+00  2.63777394e+00
  2.65266036e+00  2.65506089e+00  2.65919910e+00  2.66441313e+00
  2.67317901e+00  2.67408499e+00  2.68508521e+00  2.69254572e+00
  2.69347490e+00  2.69892645e+00  2.70804517e+00  2.72641119e+00
  2.73507166e+00  2.74341575e+00  2.74406119e+00  2.74657422e+00
  2.75788296e+00  2.76140344e+00  2.76774983e+00  2.77570850e+00
  2.78641422e+00  2.79464731e+00  2.80027202e+00  2.80434252e+00
  2.80669948e+00  2.82049378e+00  2.82198399e+00  2.82761468e+00
  2.83004879e+00  2.83838454e+00  2.84611966e+00  2.85429864e+00
  2.87864836e+00  2.87917395e+00  2.88297704e+00  2.89763835e+00
  2.90754852e+00  2.92089608e+00  2.93117924e+00  2.93630170e+00
  2.94523013e+00  2.95358214e+00  2.96110288e+00  2.96786846e+00
  2.97987904e+00  2.98640070e+00  2.98807445e+00  3.00500011e+00
  3.01436178e+00  3.02509944e+00  3.03194599e+00  3.04459408e+00
  3.05073168e+00  3.05834013e+00  3.06833373e+00  3.07439714e+00
  3.08832324e+00  3.10271101e+00  3.10883307e+00  3.11174701e+00
  3.12857201e+00  3.13016413e+00  3.13903814e+00  3.14367758e+00
  3.15164565e+00  3.15380449e+00  3.16338170e+00  3.16758220e+00
  3.17219186e+00  3.17928503e+00  3.18382195e+00  3.19163749e+00
  3.19734565e+00  3.19997993e+00  3.21002356e+00  3.21178455e+00
  3.21755818e+00  3.22266291e+00  3.22779207e+00  3.23775692e+00
  3.24196090e+00  3.24884774e+00  3.25300215e+00  3.25823157e+00
  3.26235157e+00  3.26458077e+00  3.26821619e+00  3.27570482e+00
  3.28614229e+00  3.29651727e+00  3.29950904e+00  3.30244922e+00
  3.30657940e+00  3.31688774e+00  3.32183966e+00  3.32717956e+00
  3.33327871e+00  3.33589271e+00  3.33923468e+00  3.34653215e+00
  3.35053744e+00  3.35462777e+00  3.35854504e+00  3.36305922e+00
  3.37418110e+00  3.37826888e+00  3.38377269e+00  3.38525740e+00
  3.39357167e+00  3.40102141e+00  3.40322515e+00  3.41323879e+00
  3.42267933e+00  3.42515290e+00  3.44031611e+00  3.44684581e+00
  3.45125933e+00  3.45616538e+00  3.46499675e+00  3.47751784e+00
  3.48541396e+00  3.48964482e+00  3.50413035e+00  3.50611417e+00
  3.52015967e+00  3.52518510e+00  3.53081823e+00  3.53453646e+00
  3.53659290e+00  3.54858335e+00  3.55138751e+00  3.55863992e+00
  3.56374015e+00  3.57067899e+00  3.58031652e+00  3.58790580e+00
  3.59589192e+00  3.60353440e+00  3.61419951e+00  3.61594440e+00
  3.62467150e+00  3.63475330e+00  3.64483242e+00  3.65452408e+00
  3.67891033e+00  3.68863640e+00  3.69349442e+00  3.69679867e+00
  3.70602742e+00  3.71502069e+00  3.73109363e+00  3.73903964e+00
  3.74367880e+00  3.76180791e+00  3.76531818e+00  3.77017814e+00
  3.78901194e+00  3.80312030e+00  3.81825449e+00  3.82869475e+00
  3.84870053e+00  3.85978370e+00  3.86989080e+00  3.87599576e+00
  3.90066272e+00  3.90529708e+00  3.91631701e+00  3.92393406e+00
  3.93639327e+00  3.95585202e+00  3.97726796e+00  3.99531370e+00
  4.00403707e+00  4.00530135e+00  4.00929866e+00  4.01726077e+00
  4.03647723e+00  4.04578626e+00  4.05050016e+00  4.06421751e+00
  4.06616757e+00  4.07981876e+00  4.08213625e+00  4.09623792e+00
  4.10833473e+00  4.12001584e+00  4.13807295e+00  4.15144849e+00
  4.16010207e+00  4.16626052e+00  4.16848090e+00  4.18457959e+00
  4.19122985e+00  4.19392425e+00  4.20383520e+00  4.21612468e+00
  4.22098915e+00  4.24039810e+00  4.24838816e+00  4.25763774e+00
  4.26543264e+00  4.27176229e+00  4.28100365e+00  4.29794502e+00
  4.30977601e+00  4.31356917e+00  4.32329231e+00  4.33426941e+00
  4.33867393e+00  4.35227433e+00  4.36099429e+00  4.37389830e+00
  4.39001424e+00  4.39944051e+00  4.41255928e+00  4.41920654e+00
  4.42389710e+00  4.43244602e+00  4.44026067e+00  4.44993036e+00
  4.46671320e+00  4.49345251e+00  4.50265417e+00  4.52006861e+00
  4.52313286e+00  4.52898826e+00  4.54336757e+00  4.60166909e+00
  4.62553593e+00  4.64452336e+00  4.65081180e+00  4.66064406e+00
  4.69372105e+00  4.70599528e+00  4.72292695e+00  4.74332297e+00
  4.75197030e+00  4.76664284e+00  4.78779716e+00  4.79225222e+00
  4.80971398e+00  4.83997491e+00  4.87542915e+00  4.88118553e+00
  4.89925003e+00  4.91418876e+00  4.92259753e+00  4.92808919e+00
  4.94233076e+00  4.94463389e+00  4.95498906e+00  4.98601562e+00
  4.99710139e+00  5.00339347e+00  5.02776508e+00  5.03301950e+00
  5.05205805e+00  5.06689372e+00  5.09253112e+00  5.09540231e+00
  5.11536268e+00  5.14081030e+00  5.14985872e+00  5.17400821e+00
  5.18370049e+00  5.22523464e+00  5.23906990e+00  5.26957345e+00
  5.29790424e+00  5.30036801e+00  5.32206502e+00  5.32989648e+00
  5.35306542e+00  5.36630463e+00  5.40900603e+00  5.45452649e+00
  5.46170156e+00  5.46959063e+00  5.50337690e+00  5.50752569e+00
  5.56250448e+00  5.60640821e+00  5.63294676e+00  5.67190007e+00
  5.70639127e+00  5.72307572e+00  5.77116192e+00  5.79293099e+00
  5.83158208e+00  5.86785635e+00  5.90212990e+00  5.97137291e+00
  5.97772712e+00  6.01901758e+00  6.04209599e+00  6.06739333e+00
  6.10261636e+00  6.27847205e+00  6.29127718e+00  6.54393351e+00
  6.70166627e+00  6.74519339e+00  6.94587078e+00  6.95928313e+00
  7.27362894e+00  7.74718459e+00  2.23745902e+01  2.23795405e+01
  2.24392482e+01  2.24796227e+01  2.24896011e+01  2.25508229e+01
  2.25563723e+01  2.26035419e+01  2.27192084e+01  2.27344664e+01
  2.28666107e+01  2.28888563e+01  2.29543245e+01  2.30090026e+01
  2.30353650e+01  2.33897126e+01  2.35103223e+01  2.37755073e+01
  3.26152294e+01  3.28967301e+01  3.32191586e+01  4.42343579e+01]
nelec by numeric integration = 158.00010095929161
    CPU time for vxc     87.16 sec, wall time      5.01 sec
    CPU time for df vj and vk    166.79 sec, wall time     11.21 sec
E1 = -4861.9408277974435  Ecoul = 2251.309052253933  Exc = -133.75891517496865
cycle= 1 E= -937.233281236722  delta_E= 1.18e-11  |g|= 9.44e-06  |ddm|= 1.77e-05
    CPU time for cycle= 1    259.18 sec, wall time     16.66 sec
  HOMO = -0.215880536235217  LUMO = -0.0606990134157792
  mo_energy =
[-1.92345104e+01 -1.44716628e+01 -1.44197222e+01 -1.43659409e+01
 -1.03007718e+01 -1.02929879e+01 -1.02703511e+01 -1.02696430e+01
 -1.02674446e+01 -1.02607762e+01 -1.02573690e+01 -1.02547530e+01
 -1.02493103e+01 -1.02484707e+01 -1.02435344e+01 -1.02369784e+01
 -1.02355187e+01 -1.02301969e+01 -1.02134317e+01 -1.02105874e+01
 -1.02098506e+01 -1.02082258e+01 -1.09311508e+00 -1.05858352e+00
 -9.37968341e-01 -9.28238540e-01 -8.72621114e-01 -8.43632074e-01
 -8.27723359e-01 -7.89416532e-01 -7.67413188e-01 -7.54899389e-01
 -7.44525466e-01 -7.09658000e-01 -7.01904425e-01 -6.98175898e-01
 -6.71903752e-01 -6.48486775e-01 -6.38549381e-01 -6.16510309e-01
 -5.99562532e-01 -5.68724183e-01 -5.51961922e-01 -5.33931060e-01
 -5.15473298e-01 -5.02345466e-01 -4.95496094e-01 -4.85636217e-01
 -4.82052354e-01 -4.79902886e-01 -4.66873370e-01 -4.61538033e-01
 -4.59912346e-01 -4.46281080e-01 -4.43120847e-01 -4.29612715e-01
 -4.25578553e-01 -4.18696545e-01 -4.14214492e-01 -4.09340090e-01
 -4.02822624e-01 -3.94633295e-01 -3.91450644e-01 -3.88901456e-01
 -3.80485929e-01 -3.67841117e-01 -3.67355326e-01 -3.62662157e-01
 -3.52058706e-01 -3.47527879e-01 -3.40307527e-01 -3.34019046e-01
 -3.26966296e-01 -2.89854332e-01 -2.79435543e-01 -2.77631958e-01
 -2.44293483e-01 -2.32643416e-01 -2.15880536e-01 -6.06990134e-02
 -1.41094650e-02  6.22910217e-03  2.91118067e-02  3.53602031e-02
  4.54293935e-02  5.76836749e-02  6.94317085e-02  7.28308712e-02
  8.16227184e-02  8.27136801e-02  8.83028898e-02  9.32122022e-02
  1.00361114e-01  1.02574901e-01  1.07698511e-01  1.10512787e-01
  1.14605636e-01  1.18012822e-01  1.24159354e-01  1.27096661e-01
  1.33486198e-01  1.34341736e-01  1.36937237e-01  1.41473168e-01
  1.45465595e-01  1.46798982e-01  1.54244162e-01  1.62823527e-01
  1.65864536e-01  1.71236334e-01  1.72786684e-01  1.76050445e-01
  1.81833645e-01  1.86230735e-01  1.88491616e-01  1.89907384e-01
  1.95250995e-01  1.99575609e-01  2.04028145e-01  2.10640376e-01
  2.14243863e-01  2.16460562e-01  2.22888304e-01  2.25238290e-01
  2.33855920e-01  2.37813444e-01  2.40196896e-01  2.48573203e-01
  2.53956069e-01  2.57698681e-01  2.60951702e-01  2.70133555e-01
  2.74609457e-01  2.76965317e-01  2.80161795e-01  2.88756569e-01
  2.93848412e-01  2.99002384e-01  3.01317486e-01  3.11669771e-01
  3.15582044e-01  3.20962987e-01  3.26045674e-01  3.28880529e-01
  3.34114450e-01  3.38284742e-01  3.43664697e-01  3.45877020e-01
  3.47234143e-01  3.56188198e-01  3.62111535e-01  3.65122219e-01
  3.69253538e-01  3.71804938e-01  3.72926298e-01  3.82098476e-01
  3.86050947e-01  3.90413134e-01  3.95504759e-01  4.03323273e-01
  4.05219488e-01  4.08631815e-01  4.11241057e-01  4.14226097e-01
  4.16269438e-01  4.20535723e-01  4.28808059e-01  4.32558458e-01
  4.40339214e-01  4.46485865e-01  4.47458881e-01  4.48339231e-01
  4.52566089e-01  4.54671814e-01  4.57393001e-01  4.63317642e-01
  4.66665931e-01  4.68534931e-01  4.73866982e-01  4.75612729e-01
  4.76820211e-01  4.79242827e-01  4.85775270e-01  4.88227697e-01
  4.95714174e-01  4.98726060e-01  5.01975785e-01  5.03727710e-01
  5.09007978e-01  5.13866589e-01  5.21537419e-01  5.22934838e-01
  5.28312340e-01  5.36520674e-01  5.41094027e-01  5.45297970e-01
  5.50943758e-01  5.57042134e-01  5.57721192e-01  5.64464664e-01
  5.73966114e-01  5.87580808e-01  5.90715215e-01  5.93488892e-01
  5.98004813e-01  6.07741690e-01  6.15133967e-01  6.20442182e-01
  6.27098637e-01  6.29911438e-01  6.38867291e-01  6.47183359e-01
  6.48464532e-01  6.53626930e-01  6.56499538e-01  6.63503258e-01
  6.67454443e-01  6.73880681e-01  6.77140588e-01  6.82623399e-01
  6.85281987e-01  6.90864238e-01  7.07516345e-01  7.08644150e-01
  7.26600521e-01  7.32450844e-01  7.34902494e-01  7.42577737e-01
  7.45450829e-01  7.47213311e-01  7.48816526e-01  7.57842398e-01
  7.60681543e-01  7.78704724e-01  7.80769231e-01  7.97516706e-01
  7.99133686e-01  8.09762112e-01  8.12004147e-01  8.17147575e-01
  8.28004294e-01  8.37914600e-01  8.45885971e-01  8.48721811e-01
  8.54672538e-01  8.61489426e-01  8.71148324e-01  8.72471270e-01
  8.75321053e-01  8.86650574e-01  8.91795643e-01  8.98164963e-01
  9.00737714e-01  9.08095684e-01  9.10343094e-01  9.23925254e-01
  9.24673670e-01  9.33503539e-01  9.40619842e-01  9.54628931e-01
  9.65281746e-01  9.76867573e-01  9.86395826e-01  9.89770028e-01
  9.95097609e-01  1.00536847e+00  1.01031256e+00  1.01731560e+00
  1.02270136e+00  1.03073342e+00  1.04970886e+00  1.05298338e+00
  1.05368294e+00  1.06943659e+00  1.08023663e+00  1.08371788e+00
  1.08440397e+00  1.09213586e+00  1.09761634e+00  1.10594645e+00
  1.10747348e+00  1.12267513e+00  1.12655545e+00  1.13976219e+00
  1.14417594e+00  1.15422279e+00  1.16272537e+00  1.17209348e+00
  1.18084348e+00  1.18779448e+00  1.20072442e+00  1.20759268e+00
  1.22027228e+00  1.22306827e+00  1.22446795e+00  1.23652596e+00
  1.24101015e+00  1.24804972e+00  1.25448750e+00  1.25821612e+00
  1.25958266e+00  1.27176514e+00  1.28263430e+00  1.29781879e+00
  1.30447943e+00  1.31324738e+00  1.31929085e+00  1.32570887e+00
  1.34068133e+00  1.34559459e+00  1.35854776e+00  1.36643356e+00
  1.37202459e+00  1.37827720e+00  1.39005974e+00  1.39353153e+00
  1.40413803e+00  1.40951179e+00  1.42291037e+00  1.43669377e+00
  1.44598839e+00  1.45357999e+00  1.47799057e+00  1.48534537e+00
  1.48946980e+00  1.48992469e+00  1.49928100e+00  1.50266451e+00
  1.50700320e+00  1.51153667e+00  1.51648464e+00  1.51698409e+00
  1.52886686e+00  1.53007998e+00  1.53646854e+00  1.54474766e+00
  1.55044718e+00  1.55105664e+00  1.55686853e+00  1.56546440e+00
  1.57551940e+00  1.57880006e+00  1.58343586e+00  1.58946658e+00
  1.59525633e+00  1.59798286e+00  1.60645350e+00  1.61646632e+00
  1.62136416e+00  1.62237582e+00  1.64054877e+00  1.64384143e+00
  1.65093183e+00  1.65490351e+00  1.66403125e+00  1.67088476e+00
  1.67128730e+00  1.67500704e+00  1.67717136e+00  1.68472453e+00
  1.69320159e+00  1.70176880e+00  1.71286381e+00  1.71799030e+00
  1.72534844e+00  1.72744459e+00  1.73353558e+00  1.74371344e+00
  1.75114276e+00  1.75799295e+00  1.76829737e+00  1.77609993e+00
  1.78460607e+00  1.79661515e+00  1.80071629e+00  1.80340833e+00
  1.81473866e+00  1.82877418e+00  1.82986843e+00  1.83884088e+00
  1.85384495e+00  1.86001108e+00  1.86337855e+00  1.88415889e+00
  1.89246475e+00  1.89812416e+00  1.91133989e+00  1.92397883e+00
  1.93069623e+00  1.93836248e+00  1.94859182e+00  1.95652843e+00
  1.96943376e+00  1.97407062e+00  2.00268990e+00  2.00828662e+00
  2.01849027e+00  2.02119440e+00  2.03451622e+00  2.05019271e+00
  2.05241867e+00  2.05748789e+00  2.06050248e+00  2.07142595e+00
  2.07683273e+00  2.09168135e+00  2.09731505e+00  2.11006338e+00
  2.11971496e+00  2.12342769e+00  2.13712316e+00  2.15252510e+00
  2.15684363e+00  2.16356422e+00  2.16677982e+00  2.17145308e+00
  2.17885696e+00  2.18827691e+00  2.19339945e+00  2.19996322e+00
  2.20762932e+00  2.22158991e+00  2.23058211e+00  2.23499524e+00
  2.24146700e+00  2.24887019e+00  2.26626799e+00  2.27289345e+00
  2.28970787e+00  2.29288345e+00  2.29760666e+00  2.30274598e+00
  2.30859096e+00  2.31414730e+00  2.32490999e+00  2.32880534e+00
  2.33716592e+00  2.34450854e+00  2.35075009e+00  2.35409847e+00
  2.36640552e+00  2.36873159e+00  2.36970423e+00  2.37608718e+00
  2.38343744e+00  2.38872183e+00  2.39421878e+00  2.40008781e+00
  2.40914706e+00  2.41243022e+00  2.42345997e+00  2.43496437e+00
  2.44304281e+00  2.46279527e+00  2.47226676e+00  2.47656535e+00
  2.48164730e+00  2.48440744e+00  2.49970095e+00  2.50641584e+00
  2.52104626e+00  2.52610603e+00  2.52891779e+00  2.53615540e+00
  2.54057432e+00  2.55159820e+00  2.56697243e+00  2.57288422e+00
  2.57671115e+00  2.58125698e+00  2.58790702e+00  2.59574599e+00
  2.59683545e+00  2.60551062e+00  2.61220131e+00  2.61875137e+00
  2.62372651e+00  2.62997556e+00  2.63349241e+00  2.63777410e+00
  2.65266081e+00  2.65506079e+00  2.65919941e+00  2.66441337e+00
  2.67317899e+00  2.67408511e+00  2.68508517e+00  2.69254536e+00
  2.69347502e+00  2.69892667e+00  2.70804514e+00  2.72641144e+00
  2.73507142e+00  2.74341582e+00  2.74406082e+00  2.74657461e+00
  2.75788331e+00  2.76140367e+00  2.76775027e+00  2.77570867e+00
  2.78641412e+00  2.79464708e+00  2.80027226e+00  2.80434277e+00
  2.80670007e+00  2.82049426e+00  2.82198402e+00  2.82761479e+00
  2.83004900e+00  2.83838509e+00  2.84611945e+00  2.85429901e+00
  2.87864865e+00  2.87917380e+00  2.88297684e+00  2.89763873e+00
  2.90754842e+00  2.92089670e+00  2.93117894e+00  2.93630195e+00
  2.94523034e+00  2.95358246e+00  2.96110279e+00  2.96786864e+00
  2.97987930e+00  2.98640075e+00  2.98807463e+00  3.00499968e+00
  3.01436187e+00  3.02509979e+00  3.03194617e+00  3.04459376e+00
  3.05073151e+00  3.05834035e+00  3.06833384e+00  3.07439679e+00
  3.08832352e+00  3.10271132e+00  3.10883349e+00  3.11174709e+00
  3.12857213e+00  3.13016436e+00  3.13903817e+00  3.14367789e+00
  3.15164555e+00  3.15380492e+00  3.16338198e+00  3.16758216e+00
  3.17219180e+00  3.17928502e+00  3.18382196e+00  3.19163741e+00
  3.19734565e+00  3.19997980e+00  3.21002358e+00  3.21178475e+00
  3.21755800e+00  3.22266335e+00  3.22779221e+00  3.23775696e+00
  3.24196108e+00  3.24884804e+00  3.25300260e+00  3.25823171e+00
  3.26235184e+00  3.26458082e+00  3.26821603e+00  3.27570516e+00
  3.28614235e+00  3.29651762e+00  3.29950912e+00  3.30244926e+00
  3.30657949e+00  3.31688788e+00  3.32183982e+00  3.32717973e+00
  3.33327861e+00  3.33589286e+00  3.33923490e+00  3.34653216e+00
  3.35053709e+00  3.35462792e+00  3.35854533e+00  3.36305898e+00
  3.37418073e+00  3.37826914e+00  3.38377280e+00  3.38525748e+00
  3.39357207e+00  3.40102173e+00  3.40322555e+00  3.41323906e+00
  3.42267982e+00  3.42515307e+00  3.44031625e+00  3.44684586e+00
  3.45125946e+00  3.45616590e+00  3.46499697e+00  3.47751791e+00
  3.48541391e+00  3.48964510e+00  3.50413053e+00  3.50611449e+00
  3.52016015e+00  3.52518526e+00  3.53081807e+00  3.53453624e+00
  3.53659287e+00  3.54858384e+00  3.55138767e+00  3.55863992e+00
  3.56374042e+00  3.57067917e+00  3.58031654e+00  3.58790627e+00
  3.59589208e+00  3.60353491e+00  3.61419982e+00  3.61594466e+00
  3.62467149e+00  3.63475305e+00  3.64483231e+00  3.65452433e+00
  3.67891048e+00  3.68863669e+00  3.69349465e+00  3.69679885e+00
  3.70602732e+00  3.71502110e+00  3.73109399e+00  3.73903995e+00
  3.74367904e+00  3.76180796e+00  3.76531818e+00  3.77017803e+00
  3.78901221e+00  3.80312045e+00  3.81825471e+00  3.82869506e+00
  3.84870056e+00  3.85978362e+00  3.86989124e+00  3.87599594e+00
  3.90066300e+00  3.90529719e+00  3.91631690e+00  3.92393389e+00
  3.93639326e+00  3.95585150e+00  3.97726721e+00  3.99531370e+00
  4.00403707e+00  4.00530158e+00  4.00929860e+00  4.01726094e+00
  4.03647765e+00  4.04578649e+00  4.05050026e+00  4.06421721e+00
  4.06616767e+00  4.07981904e+00  4.08213663e+00  4.09623826e+00
  4.10833496e+00  4.12001627e+00  4.13807309e+00  4.15144883e+00
  4.16010238e+00  4.16626071e+00  4.16848120e+00  4.18457897e+00
  4.19123054e+00  4.19392420e+00  4.20383520e+00  4.21612521e+00
  4.22098932e+00  4.24039836e+00  4.24838840e+00  4.25763783e+00
  4.26543320e+00  4.27176254e+00  4.28100383e+00  4.29794544e+00
  4.30977581e+00  4.31356944e+00  4.32329269e+00  4.33426973e+00
  4.33867406e+00  4.35227456e+00  4.36099434e+00  4.37389801e+00
  4.39001447e+00  4.39944067e+00  4.41255918e+00  4.41920593e+00
  4.42389748e+00  4.43244631e+00  4.44026093e+00  4.44993068e+00
  4.46671343e+00  4.49345270e+00  4.50265421e+00  4.52006892e+00
  4.52313333e+00  4.52898840e+00  4.54336793e+00  4.60166931e+00
  4.62553622e+00  4.64452361e+00  4.65081222e+00  4.66064434e+00
  4.69372085e+00  4.70599566e+00  4.72292726e+00  4.74332337e+00
  4.75197035e+00  4.76664335e+00  4.78779693e+00  4.79225232e+00
  4.80971360e+00  4.83997481e+00  4.87542897e+00  4.88118574e+00
  4.89924988e+00  4.91418874e+00  4.92259735e+00  4.92808931e+00
  4.94233081e+00  4.94463340e+00  4.95498886e+00  4.98601617e+00
  4.99710128e+00  5.00339368e+00  5.02776522e+00  5.03301952e+00
  5.05205809e+00  5.06689404e+00  5.09253080e+00  5.09540216e+00
  5.11536292e+00  5.14081041e+00  5.14985842e+00  5.17400702e+00
  5.18369991e+00  5.22523441e+00  5.23906977e+00  5.26957407e+00
  5.29790476e+00  5.30036814e+00  5.32206460e+00  5.32989660e+00
  5.35306511e+00  5.36630445e+00  5.40900559e+00  5.45452613e+00
  5.46170127e+00  5.46959070e+00  5.50337769e+00  5.50752596e+00
  5.56250396e+00  5.60640821e+00  5.63294634e+00  5.67190017e+00
  5.70639121e+00  5.72307551e+00  5.77116134e+00  5.79293052e+00
  5.83158254e+00  5.86785685e+00  5.90213029e+00  5.97137257e+00
  5.97772696e+00  6.01901697e+00  6.04209648e+00  6.06739383e+00
  6.10261674e+00  6.27847280e+00  6.29127769e+00  6.54393341e+00
  6.70166746e+00  6.74519480e+00  6.94587189e+00  6.95928446e+00
  7.27363027e+00  7.74718552e+00  2.23745902e+01  2.23795400e+01
  2.24392487e+01  2.24796233e+01  2.24896014e+01  2.25508221e+01
  2.25563731e+01  2.26035424e+01  2.27192076e+01  2.27344667e+01
  2.28666120e+01  2.28888563e+01  2.29543246e+01  2.30090029e+01
  2.30353660e+01  2.33897138e+01  2.35103196e+01  2.37755080e+01
  3.26152273e+01  3.28967285e+01  3.32191601e+01  4.42343605e+01]
nelec by numeric integration = 158.00010095924856
    CPU time for vxc    104.21 sec, wall time      6.13 sec
    CPU time for df vj and vk    173.91 sec, wall time     11.95 sec
E1 = -4861.940780403707  Ecoul = 2251.309003504946  Exc = -133.75891381963265
Extra cycle  E= -937.233281236637  delta_E= 8.5e-11  |g|= 1.92e-05  |ddm|= 3.89e-05
    CPU time for scf_cycle   1012.03 sec, wall time     77.77 sec
    CPU time for SCF   1012.05 sec, wall time     77.77 sec
converged SCF energy = -937.233281236637
SCF Done after 77.83 seconds
after SCF memory used: 6.02 GB
Converting <class 'pyscf.df.df_jk.density_fit.<locals>.DFHF'> to RHF
Converting <class 'pyscf.df.df_jk.density_fit.<locals>.DFHF'> to RHF
hdiag shape (57591,)
n_occ =  79
n_vir =  729
max_vir =  219
A_size =  57591
A_reduced_size = 17301
a_x = 0.25
beta = 0.6575
alpha = 1.54
Q-Gamma tensors building time = 0.31
after Q matrix memory used: 6.21 GB
TDDFT
|-------- In-house Developed TDDFT Starts ---------|
Residual conv = 1e-05

Number of excited states = 5
Initial guess:   sTDDFT
Preconditioner:  sTDDFT
A matrix size =  57591
setting initial guess
sTDDFT Convergence tol = 1.00e-03
sTDDFT diagonalization Converged
after  4 iterations; 2.3381 seconds
final subspace 46
max_norm =  7.65e-04
MVcost     1.1469s 49.05%
GScost     0.8598s 36.77%
subgencost 0.1867s 7.98%
subcost    0.0111s 0.48%
sTDDFT excitation energy:
[3.26047634 3.69964263 3.94175147 4.64112698 4.83865454 4.93804541
 4.99689344 5.03463085 5.09569444 5.21650237]
new_m = 10
initial guess done

iteration 0
beginning of step 0 memory used: 6.52 GB
    CPU time for df vj and vk   1699.13 sec, wall time    105.00 sec
subspace size: 10
Maximum residual norm:  9.02e-02
unconverged states [0, 1, 2, 3, 4]
sTDDFT_preconditioner conv 0.01
sTDDFT preconditioning Done
after 8 steps; 1.4287 s
final subspace 27
max_norm =  7.35e-03
initial_cost 0.0786s  5.50%
MVcost     0.7072s  49.50%
GScost     0.3009s  21.06%
subgencost 0.2315s  16.20%
subcost    0.0084s  0.59%
m & new_m 10 15

iteration 1
beginning of step 1 memory used: 6.59 GB
    CPU time for df vj and vk    854.37 sec, wall time     53.04 sec
subspace size: 15
Maximum residual norm:  2.03e-02
unconverged states [0, 1, 2, 3, 4]
sTDDFT_preconditioner conv 0.01
sTDDFT preconditioning Done
after 9 steps; 1.5400 s
final subspace 30
max_norm =  8.98e-03
initial_cost 0.0375s  2.44%
MVcost     0.7458s  48.43%
GScost     0.3465s  22.50%
subgencost 0.2870s  18.64%
subcost    0.0106s  0.69%
m & new_m 15 20

iteration 2
beginning of step 2 memory used: 6.61 GB
    CPU time for df vj and vk    835.55 sec, wall time     53.60 sec
subspace size: 20
Maximum residual norm:  7.69e-03
unconverged states [0, 1, 2, 3, 4]
sTDDFT_preconditioner conv 0.01
sTDDFT preconditioning Done
after 8 steps; 1.5775 s
final subspace 31
max_norm =  8.77e-03
initial_cost 0.0336s  2.13%
MVcost     0.7780s  49.32%
GScost     0.3869s  24.53%
subgencost 0.2552s  16.18%
subcost    0.0096s  0.61%
m & new_m 20 25

iteration 3
beginning of step 3 memory used: 6.58 GB
    CPU time for df vj and vk    865.35 sec, wall time     53.77 sec
subspace size: 25
Maximum residual norm:  2.08e-03
unconverged states [0, 1, 2, 3, 4]
sTDDFT_preconditioner conv 0.01
sTDDFT preconditioning Done
after 8 steps; 1.5262 s
final subspace 31
max_norm =  6.54e-03
initial_cost 0.0344s  2.25%
MVcost     0.7300s  47.83%
GScost     0.3926s  25.72%
subgencost 0.2560s  16.77%
subcost    0.0092s  0.61%
m & new_m 25 30

iteration 4
beginning of step 4 memory used: 6.63 GB
    CPU time for df vj and vk    835.70 sec, wall time     52.57 sec
subspace size: 30
Maximum residual norm:  6.12e-04
unconverged states [0, 1, 2, 3, 4]
sTDDFT_preconditioner conv 0.01
sTDDFT preconditioning Done
after 7 steps; 1.3340 s
final subspace 30
max_norm =  8.12e-03
initial_cost 0.0330s  2.47%
MVcost     0.6672s  50.02%
GScost     0.3474s  26.04%
subgencost 0.1975s  14.81%
subcost    0.0073s  0.55%
m & new_m 30 35

iteration 5
beginning of step 5 memory used: 6.58 GB
    CPU time for df vj and vk    875.86 sec, wall time     54.68 sec
subspace size: 35
Maximum residual norm:  1.90e-04
unconverged states [0, 1, 2, 3, 4]
sTDDFT_preconditioner conv 0.01
sTDDFT preconditioning Done
after 8 steps; 1.2515 s
final subspace 26
max_norm =  8.00e-03
initial_cost 0.0347s  2.77%
MVcost     0.5930s  47.38%
GScost     0.2805s  22.41%
subgencost 0.2243s  17.92%
subcost    0.0081s  0.65%
m & new_m 35 40

iteration 6
beginning of step 6 memory used: 6.59 GB
    CPU time for df vj and vk    853.97 sec, wall time     53.76 sec
subspace size: 40
Maximum residual norm:  5.38e-05
unconverged states [0, 1, 2, 3, 4]
sTDDFT_preconditioner conv 0.01
sTDDFT preconditioning Done
after 7 steps; 1.4327 s
final subspace 30
max_norm =  4.63e-03
initial_cost 0.0353s  2.46%
MVcost     0.7516s  52.46%
GScost     0.3598s  25.11%
subgencost 0.1992s  13.90%
subcost    0.0072s  0.50%
m & new_m 40 45

iteration 7
beginning of step 7 memory used: 6.64 GB
    CPU time for df vj and vk    847.54 sec, wall time     52.64 sec
subspace size: 45
Maximum residual norm:  1.74e-05
unconverged states [3]
sTDDFT_preconditioner conv 0.01
sTDDFT preconditioning Done
after 11 steps; 0.4821 s
final subspace 11
max_norm =  7.79e-03
initial_cost 0.0038s  0.79%
MVcost     0.3006s  62.35%
GScost     0.0513s  10.64%
subgencost 0.0857s  17.77%
subcost    0.0065s  1.36%
m & new_m 45 46

iteration 8
beginning of step 8 memory used: 6.61 GB
    CPU time for df vj and vk    174.56 sec, wall time     12.05 sec
subspace size: 46
Maximum residual norm:  5.67e-06
TDDFT precedure Done

============= TDDFT Calculation Done ==============
after 9 iterations 689.43 s
Final subspace  46
preconditioning cost 10.6548 0.02 %
max_norm =  5.67e-06
Total TDDFT memory used: 6.49 GB
Excited State energies (eV) =
 [3.46626417 3.96064806 4.15529227 4.81684128 5.02388518]

Number of excited states = 5
Initial guess:   Adiag
Preconditioner:  Adiag
A matrix size =  57591
new_m = 10
initial guess done

iteration 0
beginning of step 0 memory used: 6.49 GB
    CPU time for df vj and vk   1658.74 sec, wall time    100.20 sec
subspace size: 10
Maximum residual norm:  1.36e-01
unconverged states [0, 1, 2, 3, 4]
m & new_m 10 15

iteration 1
beginning of step 1 memory used: 6.51 GB
    CPU time for df vj and vk    829.94 sec, wall time     50.97 sec
subspace size: 15
Maximum residual norm:  4.64e-02
unconverged states [0, 1, 2, 3, 4]
m & new_m 15 20

iteration 2
beginning of step 2 memory used: 6.53 GB
    CPU time for df vj and vk    827.56 sec, wall time     52.30 sec
subspace size: 20
Maximum residual norm:  3.09e-02
unconverged states [0, 1, 2, 3, 4]
m & new_m 20 25

iteration 3
beginning of step 3 memory used: 6.51 GB
    CPU time for df vj and vk    834.65 sec, wall time     51.44 sec
subspace size: 25
Maximum residual norm:  9.62e-03
unconverged states [0, 1, 2, 3, 4]
m & new_m 25 30

iteration 4
beginning of step 4 memory used: 6.57 GB
    CPU time for df vj and vk    841.43 sec, wall time     51.45 sec
subspace size: 30
Maximum residual norm:  4.10e-03
unconverged states [0, 1, 2, 3, 4]
m & new_m 30 35

iteration 5
beginning of step 5 memory used: 6.53 GB
    CPU time for df vj and vk    840.62 sec, wall time     52.12 sec
subspace size: 35
Maximum residual norm:  2.15e-03
unconverged states [0, 1, 2, 3, 4]
m & new_m 35 40

iteration 6
beginning of step 6 memory used: 6.53 GB
    CPU time for df vj and vk    837.41 sec, wall time     51.31 sec
subspace size: 40
Maximum residual norm:  7.49e-04
unconverged states [0, 1, 2, 3, 4]
m & new_m 40 45

iteration 7
beginning of step 7 memory used: 6.54 GB
    CPU time for df vj and vk    850.86 sec, wall time     52.21 sec
subspace size: 45
Maximum residual norm:  3.39e-04
unconverged states [0, 1, 2, 3, 4]
m & new_m 45 50

iteration 8
beginning of step 8 memory used: 6.57 GB
    CPU time for df vj and vk    826.36 sec, wall time     51.02 sec
subspace size: 50
Maximum residual norm:  1.15e-04
unconverged states [0, 1, 2, 3, 4]
m & new_m 50 55

iteration 9
beginning of step 9 memory used: 6.60 GB
    CPU time for df vj and vk    839.12 sec, wall time     51.58 sec
subspace size: 55
Maximum residual norm:  3.77e-05
unconverged states [3, 4]
m & new_m 55 57

iteration 10
beginning of step 10 memory used: 6.57 GB
    CPU time for df vj and vk    329.70 sec, wall time     21.15 sec
subspace size: 57
Maximum residual norm:  1.38e-05
unconverged states [3]
m & new_m 57 58

iteration 11
beginning of step 11 memory used: 6.57 GB
    CPU time for df vj and vk    169.93 sec, wall time     12.12 sec
subspace size: 58
Maximum residual norm:  4.97e-06
TDDFT precedure Done

============= TDDFT Calculation Done ==============
after 12 iterations 836.23 s
Final subspace  58
preconditioning cost 0.1391 0.00 %
max_norm =  4.97e-06
Total TDDFT memory used: 6.57 GB
Excited State energies (eV) =
 [3.46626417 3.96064806 4.15529227 4.81684128 5.02388518]
xyzfile = 43_PyrImid_TMIO5.xyz
checkfile = True
method = RKS
functional = pbe0
basis_set = def2-tzvp
density_fit = True
grid_level = 3
nstates = 5
pytd = False
TDA = False
TDDFT = True
dynpol = False
dynpol_omega = []
stapol = False
sTDA = False
sTDDFT = False
Truncate_test = False
truncate_virtual = 40.0
ip_options = [0, 1]
conv_tolerance = 1e-05
initial_TOL = 0.001
precond_TOL = 0.01
extrainitial = 8
max = 30
eigensolver_tol = 1e-05
memory = 50000
verbose = 5
beta = []
alpha = []
|-------- In-house Developed TDDFT Ends ----------|
