curpath /scratch/pbsjobs/job.15971972.hpc
lib.num_threads() =  16
at beginning memory used: 51.87109375 MB
mol.max_memory 50000


System: uname_result(system='Linux', node='compt161', release='3.10.0-1127.el7.x86_64', version='#1 SMP Tue Feb 18 16:39:12 EST 2020', machine='x86_64', processor='x86_64')  Threads 16
Python 3.7.0 (default, Aug 23 2018, 14:24:33) 
[GCC 6.3.0]
numpy 1.18.1  scipy 1.4.1
Date: Wed Jul  7 22:54:24 2021
PySCF version 1.7.4
PySCF path  /home/zzz6/.local/lib/python3.7/site-packages/pyscf

[CONFIG] conf_file None
[INPUT] verbose = 5
[INPUT] max_memory = 50000 
[INPUT] num. atoms = 55
[INPUT] num. electrons = 290
[INPUT] charge = 0
[INPUT] spin (= nelec alpha-beta = 2S) = 0
[INPUT] symmetry False subgroup None
[INPUT] Mole.unit = angstrom
[INPUT]  1 C      7.266472264236  -0.049994296026  -0.006581434127 AA   13.731642471154  -0.094475527280  -0.012437108007 Bohr
[INPUT]  2 C      7.129331657667   1.327263294812   0.230008504917 AA   13.472484284182   2.508164122383   0.434653080615 Bohr
[INPUT]  3 C      5.790295427098   1.750305349506   0.272359232290 AA   10.942072537537   3.307597744928   0.514684356525 Bohr
[INPUT]  4 C      4.857795013595   0.721965505390   0.071604043646 AA    9.179902144972   1.364317076571   0.135312031902 Bohr
[INPUT]  5 S      5.681928847747  -0.793824360797  -0.172284507523 AA   10.737289381507  -1.500110632913  -0.325570534724 Bohr
[INPUT]  6 H      7.983078614359   1.993458078855   0.364877326958 AA   15.085832212010   3.767089809838   0.689518217015 Bohr
[INPUT]  7 H      5.498387389896   2.788655058256   0.442976919715 AA   10.390446293666   5.269794315988   0.837105057766 Bohr
[INPUT]  8 C     -0.912022346103   1.042661751927  -0.056405078751 AA   -1.723472453618   1.970345151700  -0.106590150875 Bohr
[INPUT]  9 C     -1.804665918691  -0.045047786564  -0.002023633769 AA   -3.410324332663  -0.085127979123  -0.003824113600 Bohr
[INPUT] 10 N     -1.694431267725   2.195409503216  -0.137887625047 AA   -3.202011032899   4.148722692345  -0.260569847305 Bohr
[INPUT] 11 C     -3.147057665463   0.438257483401  -0.022909662420 AA   -5.947077085938   0.828186615669  -0.043292987579 Bohr
[INPUT] 12 C     -3.104862172268   1.887592387315  -0.116269706238 AA   -5.867339160109   3.567032646839  -0.219717901373 Bohr
[INPUT] 13 C     -1.849517910465  -1.494727511971   0.092465630720 AA   -3.495082313256  -2.824625628478   0.174734717996 Bohr
[INPUT] 14 O     -0.992269105081  -2.376608665608   0.140838004071 AA   -1.875116850470  -4.491139483267   0.266145255624 Bohr
[INPUT] 15 N     -3.261912793314  -1.801117654055   0.112377567328 AA   -6.164121821579  -3.403619084283   0.212362824795 Bohr
[INPUT] 16 C     -4.040280785565  -0.647835093326   0.032161095229 AA   -7.635024151060  -1.224230900268   0.060775661849 Bohr
[INPUT] 17 O     -3.964557262074   2.767440795908  -0.162569066265 AA   -7.491927430475   5.229705170214  -0.307211011567 Bohr
[INPUT] 18 C     -1.299410073786   3.580103497636  -0.345787002487 AA   -2.455529162956   6.765415108129  -0.653442732134 Bohr
[INPUT] 19 H     -0.894185010959   4.036263184248   0.574584228713 AA   -1.689764775404   7.627431984893   1.085806827762 Bohr
[INPUT] 20 H     -0.559267038786   3.660973002758  -1.157725617178 AA   -1.056861533802   6.918236324640  -2.187784343860 Bohr
[INPUT] 21 H     -2.221551441772   4.116294388925  -0.618862528391 AA   -4.198123796581   7.778669043151  -1.169480687414 Bohr
[INPUT] 22 C     -3.662379913986  -3.184646028165   0.318007471934 AA   -6.920895001541  -6.018108796916   0.600947027521 Bohr
[INPUT] 23 H     -4.062479743651  -3.639497788936  -0.605265539616 AA   -7.676974102094  -6.877654052050  -1.143786102511 Bohr
[INPUT] 24 H     -2.744518817911  -3.724367235867   0.598298998511 AA   -5.186388909567  -7.038034063091   1.130621247787 Bohr
[INPUT] 25 H     -4.409275828989  -3.262157336430   1.124023917202 AA   -8.332323724455  -6.164583941093   2.124097360972 Bohr
[INPUT] 26 C     -8.315303617801  -0.389037889109  -0.051352023853 AA  -15.713646480249  -0.735175062495  -0.097041261024 Bohr
[INPUT] 27 C     -7.535633117580   0.746239946688   0.218883338146 AA  -14.240282767428   1.410189122450   0.413629562327 Bohr
[INPUT] 28 C     -7.710359186698  -1.625842274705  -0.317349231158 AA  -14.570467184883  -3.072396620932  -0.599703132729 Bohr
[INPUT] 29 C     -6.145336889673   0.636415541757   0.237668606446 AA  -11.613003664669   1.202651075338   0.449128574590 Bohr
[INPUT] 30 H     -8.013138988043   1.711354544320   0.407322439757 AA  -15.142638085476   3.233991390794   0.769727855530 Bohr
[INPUT] 31 C     -6.317616581388  -1.729283650326  -0.289923968104 AA  -11.938565098835  -3.267872490804  -0.547876896664 Bohr
[INPUT] 32 H     -8.323888732989  -2.499888278880  -0.550763688961 AA  -15.729869996702  -4.724104189094  -1.040792531492 Bohr
[INPUT] 33 C     -5.500644530060  -0.606996719510   0.001072701692 AA  -10.394711670400  -1.147057558383   0.002027112412 Bohr
[INPUT] 34 H     -5.545486771617   1.535402993194   0.410479274414 AA  -10.479451225755   2.901491147975   0.775693408453 Bohr
[INPUT] 35 H     -5.875840929343  -2.695788356149  -0.529036296157 AA  -11.103730107968  -5.094301682914  -0.999733709691 Bohr
[INPUT] 36 C      0.544412980089   1.006629120556  -0.016793894898 AA    1.028791431026   1.902253346863  -0.031735861923 Bohr
[INPUT] 37 C      1.359422500121   2.138318634507   0.251891887731 AA    2.568936212799   4.040836586272   0.476006680812 Bohr
[INPUT] 38 C      1.203385530065  -0.237323921650  -0.220536635835 AA    2.274069074086  -0.448477214725  -0.416753842162 Bohr
[INPUT] 39 C      2.746652832933   2.040063532074   0.285308786312 AA    5.190421613504   3.855161352332   0.539155467062 Bohr
[INPUT] 40 H      0.912058537944   3.107170644372   0.467886005318 AA    1.723540846285   5.871701540152   0.884176407568 Bohr
[INPUT] 41 C      2.589586726288  -0.326492362829  -0.193575693304 AA    4.893609688494  -0.616981147510  -0.365805044717 Bohr
[INPUT] 42 H      0.611519106741  -1.144120570297  -0.377955867113 AA    1.155603631680  -2.162074531342  -0.714233076016 Bohr
[INPUT] 43 C      3.403459649271   0.807966386297   0.050058583528 AA    6.431606613130   1.526835187955   0.094597013052 Bohr
[INPUT] 44 H      3.331176811521   2.937043449140   0.506902134356 AA    6.295011846277   5.550207734822   0.957906205889 Bohr
[INPUT] 45 H      3.058127089394  -1.302504125781  -0.362785844432 AA    5.779022653067  -2.461376073842  -0.685565887845 Bohr
[INPUT] 46 Br   -10.211123925962  -0.247983300376  -0.075130686407 AA  -19.296227644061  -0.468620521177  -0.141976420859 Bohr
[INPUT] 47 C      8.416830333383  -0.890652766629  -0.126685113636 AA   15.905504167025  -1.683089801015  -0.239400168831 Bohr
[INPUT] 48 C      9.752502762213  -0.550091193236  -0.036511216139 AA   18.429559249646  -1.039521698752  -0.068996198977 Bohr
[INPUT] 49 C     10.201178882993   0.783276755632   0.206440300942 AA   19.277434236553   1.480178547883   0.390115629854 Bohr
[INPUT] 50 C     10.824818942084  -1.568882022961  -0.189749324591 AA   20.455943148542  -2.964757345150  -0.358574255799 Bohr
[INPUT] 51 N     10.523740740577   1.892097303911   0.407039019517 AA   19.886987805618   3.575545705419   0.769192268899 Bohr
[INPUT] 52 O     12.016231284297  -1.332007571058  -0.120569283820 AA   22.707386176752  -2.517129505146  -0.227842925454 Bohr
[INPUT] 53 O     10.331250708536  -2.818334388481  -0.420471327257 AA   19.523234363352  -5.325880121673  -0.794575651749 Bohr
[INPUT] 54 H     11.116847588758  -3.397063273835  -0.503372550142 AA   21.007797311283  -6.419519215367  -0.951236258392 Bohr
[INPUT] 55 H      8.226558145938  -1.952411711044  -0.316363971779 AA   15.545941843632  -3.689523416267  -0.597841262342 Bohr
[INPUT] ---------------- BASIS SET ---------------- 
[INPUT] l, kappa, [nprim/nctr], expnt,             c_1 c_2 ...
[INPUT] N
[INPUT] 0    0    [6    /1   ]  19730.800647      0.00021887984991
                                2957.8958745      0.0016960708803
                                673.22133595      0.0087954603538
                                190.68249494      0.035359382605
                                62.295441898      0.11095789217
                                22.654161182      0.24982972552
[INPUT] 0    0    [2    /1   ]  8.9791477428      0.40623896148
                                3.686300237       0.24338217176
[INPUT] 0    0    [1    /1   ]  0.84660076805        1
[INPUT] 0    0    [1    /1   ]  0.33647133771        1
[INPUT] 0    0    [1    /1   ]  0.13647653675        1
[INPUT] 1    0    [4    /1   ]  49.20038051       0.0055552416751
                                11.346790537      0.038052379723
                                3.4273972411      0.14953671029
                                1.1785525134      0.3494930523
[INPUT] 1    0    [1    /1   ]  0.41642204972        1
[INPUT] 1    0    [1    /1   ]  0.14260826011        1
[INPUT] 2    0    [1    /1   ]  1.654                1
[INPUT] 2    0    [1    /1   ]  0.469                1
[INPUT] 3    0    [1    /1   ]  1.093                1
[INPUT] H
[INPUT] 0    0    [3    /1   ]  34.061341         0.0060251978
                                5.1235746         0.045021094
                                1.1646626         0.20189726
[INPUT] 0    0    [1    /1   ]  0.32723041           1
[INPUT] 0    0    [1    /1   ]  0.10307241           1
[INPUT] 1    0    [1    /1   ]  0.8                  1
[INPUT] S
[INPUT] 0    0    [7    /1   ]  60700.928104      0.00054695944225
                                9102.6106854      0.0042297224557
                                2071.4166009      0.021747824159
                                586.02476821      0.085100053589
                                190.55395021      0.24799128459
                                67.63038426       0.46703640406
                                25.127306905      0.3643458755
[INPUT] 0    0    [3    /1   ]  112.5746301       0.02167004024
                                34.795554217      0.09360230176
                                6.5115556215      -0.26068001422
[INPUT] 0    0    [2    /1   ]  3.2399032261      1.2842089435
                                1.5477160881      0.66036416584
[INPUT] 0    0    [1    /1   ]  0.40541030112        1
[INPUT] 0    0    [1    /1   ]  0.14550651059        1
[INPUT] 1    0    [5    /1   ]  564.36716027      0.0024796796317
                                133.42624379      0.01967793025
                                42.468271189      0.089980008258
                                15.61652758       0.25705880575
                                6.1093988469      0.43515167292
[INPUT] 1    0    [1    /1   ]  2.4404160198         1
[INPUT] 1    0    [1    /1   ]  0.83882201296        1
[INPUT] 1    0    [1    /1   ]  0.312887469          1
[INPUT] 1    0    [1    /1   ]  0.10770109004        1
[INPUT] 2    0    [2    /1   ]  3.756              0.2
                                0.812                1
[INPUT] 2    0    [1    /1   ]  0.273                1
[INPUT] 3    0    [1    /1   ]  0.557                1
[INPUT] Br
[INPUT] 0    0    [8    /1   ]  565073.25256      0.0002366031469
                                84701.723179      0.0018348332508
                                19276.2719        0.009546584986
                                5456.4284576      0.038877142153
                                1776.95035        0.12718314231
                                639.19398276      0.30437662191
                                248.78823961      0.44490940497
                                98.678305494      0.24381643058
[INPUT] 0    0    [4    /1   ]  606.07824568      -0.026527158709
                                188.45598484      -0.12484584809
                                31.497144506      0.56468683559
                                13.73600832       0.55555268564
[INPUT] 0    0    [2    /1   ]  21.203212766      -0.24940920493
                                3.7616420178      0.71213119743
[INPUT] 0    0    [1    /1   ]  1.7735933962         1
[INPUT] 0    0    [1    /1   ]  0.45197413664        1
[INPUT] 0    0    [1    /1   ]  0.16613377099        1
[INPUT] 1    0    [6    /1   ]  3019.6955723      0.0024971049798
                                715.35481126      0.020419267596
                                229.98328751      0.096897148309
                                86.167844615      0.28053901252
                                34.667870802      0.44606390473
                                14.113870307      0.24410073923
[INPUT] 1    0    [4    /1   ]  57.085653082      -0.02185595071
                                8.819384584       0.3270707532
                                3.9340302872      0.5785522952
                                1.7998830384      0.33570987698
[INPUT] 1    0    [1    /1   ]  0.66899410512        1
[INPUT] 1    0    [1    /1   ]  0.27136238231        1
[INPUT] 1    0    [1    /1   ]  0.10083790243        1
[INPUT] 2    0    [5    /1   ]  168.85370257      0.0089663981988
                                49.977949919      0.062062059316
                                18.274913338      0.21474732384
                                7.2455694631      0.40335336746
                                2.8562315025      0.4220881308
[INPUT] 2    0    [1    /1   ]  1.0459621144         1
[INPUT] 2    0    [1    /1   ]  0.56865655           1
[INPUT] 2    0    [1    /1   ]  0.2203149            1
[INPUT] 3    0    [1    /1   ]  0.57083312           1
[INPUT] C
[INPUT] 0    0    [6    /1   ]  13575.349682      0.00022245814352
                                2035.233368       0.0017232738252
                                463.22562359      0.0089255715314
                                131.20019598      0.035727984502
                                42.853015891      0.11076259931
                                15.584185766      0.24295627626
[INPUT] 0    0    [2    /1   ]  6.2067138508      0.41440263448
                                2.5764896527      0.23744968655
[INPUT] 0    0    [1    /1   ]  0.57696339419        1
[INPUT] 0    0    [1    /1   ]  0.22972831358        1
[INPUT] 0    0    [1    /1   ]  0.095164440028       1
[INPUT] 1    0    [4    /1   ]  34.697232244      0.0053333657805
                                7.9582622826      0.035864109092
                                2.3780826883      0.14215873329
                                0.81433208183     0.34270471845
[INPUT] 1    0    [1    /1   ]  0.28887547253        1
[INPUT] 1    0    [1    /1   ]  0.10056823671        1
[INPUT] 2    0    [1    /1   ]  1.097                1
[INPUT] 2    0    [1    /1   ]  0.318                1
[INPUT] 3    0    [1    /1   ]  0.761                1
[INPUT] O
[INPUT] 0    0    [6    /1   ]  27032.382631      0.00021726302465
                                4052.3871392      0.0016838662199
                                922.3272271       0.0087395616265
                                261.24070989      0.035239968808
                                85.354641351      0.11153519115
                                31.035035245      0.25588953961
[INPUT] 0    0    [2    /1   ]  12.260860728      0.39768730901
                                4.9987076005      0.2462784943
[INPUT] 0    0    [1    /1   ]  1.1703108158         1
[INPUT] 0    0    [1    /1   ]  0.46474740994        1
[INPUT] 0    0    [1    /1   ]  0.18504536357        1
[INPUT] 1    0    [4    /1   ]  63.274954801      0.0060685103418
                                14.627049379      0.041912575824
                                4.4501223456      0.16153841088
                                1.5275799647      0.35706951311
[INPUT] 1    0    [1    /1   ]  0.52935117943        1
[INPUT] 1    0    [1    /1   ]  0.1747842127         1
[INPUT] 2    0    [1    /1   ]  2.314                1
[INPUT] 2    0    [1    /1   ]  0.645                1
[INPUT] 3    0    [1    /1   ]  1.428                1

nuclear repulsion = 3990.12628172124
number of shells = 486
number of NR pGTOs = 1920
number of NR cGTOs = 1278
basis = def2-tzvp
ecp = {}
CPU time:         3.56
RKS
Density fitting turned on
Molecule built
Calculating SCF Energy...


******** <class 'pyscf.df.df_jk.density_fit.<locals>.DFHF'> ********
method = DFHF-RKS-RHF
initial guess = chkfile
damping factor = 0
level_shift factor = 0
DIIS = <class 'pyscf.scf.diis.CDIIS'>
diis_start_cycle = 1
diis_space = 8
SCF conv_tol = 1e-10
SCF conv_tol_grad = None
SCF max_cycles = 50
direct_scf = True
direct_scf_tol = 1e-13
chkfile to save SCF result = 55_DPP1_pbe0.chk
max_memory 50000 MB (current use 55 MB)
XC functionals = pbe0
small_rho_cutoff = 1e-07
radial grids: 
    Treutler-Ahlrichs [JCP 102, 346 (1995); DOI:10.1063/1.469408] (M4) radial grids
    
becke partition: Becke, JCP 88, 2547 (1988); DOI:10.1063/1.454033
pruning grids: <function nwchem_prune at 0x7f7b74cd8048>
grids dens level: 3
symmetrized grids: False
atomic radii adjust function: <function treutler_atomic_radii_adjust at 0x7f7b74cc5f28>
Set gradient conv threshold to 1e-05
atom C rad-grids = 75, ang-grids = [ 50  50  50  50  50  50  50  50  50  50  50  50  50  50  50  50  50  50
  50  50  50  50  50  86  86  86  86  86  86  86  86  86  86 266 266 266
 266 266 266 266 302 302 302 302 302 302 302 302 302 302 302 302 302 302
 302 302 302 302 302 302 266 266 266 266 266 266 266 266 266 266 266 266
 266 266 266]
atom S rad-grids = 80, ang-grids = [ 50  50  50  50  50  50  50  50  50  50  50  50  50  50  50  50  50  50
  50  50  50  50  50  50  86  86  86  86  86  86  86  86  86  86  86  86
  86 350 350 350 350 350 350 350 350 350 434 434 434 434 434 434 434 434
 434 434 434 434 434 434 434 434 434 434 350 350 350 350 350 350 350 350
 350 350 350 350 350 350 350 350]
atom H rad-grids = 50, ang-grids = [ 50  50  50  50  50  50  50  50  50  50  50  50  50  50  86  86  86  86
 266 266 266 266 302 302 302 302 302 302 302 302 302 302 302 302 302 266
 266 266 266 266 266 266 266 266 266 266 266 266 266 266]
atom N rad-grids = 75, ang-grids = [ 50  50  50  50  50  50  50  50  50  50  50  50  50  50  50  50  50  50
  50  50  50  50  50  86  86  86  86  86  86  86  86  86 266 266 266 266
 266 266 266 302 302 302 302 302 302 302 302 302 302 302 302 302 302 302
 302 302 302 302 266 266 266 266 266 266 266 266 266 266 266 266 266 266
 266 266 266]
atom O rad-grids = 75, ang-grids = [ 50  50  50  50  50  50  50  50  50  50  50  50  50  50  50  50  50  50
  50  50  50  50  86  86  86  86  86  86  86  86  86 266 266 266 266 266
 266 266 302 302 302 302 302 302 302 302 302 302 302 302 302 302 302 302
 302 302 302 266 266 266 266 266 266 266 266 266 266 266 266 266 266 266
 266 266 266]
atom Br rad-grids = 90, ang-grids = [ 50  50  50  50  50  50  50  50  50  50  50  50  50  50  50  50  50  50
  50  50  50  50  50  50  50  50  50  50  86  86  86  86  86  86  86  86
  86  86  86  86  86  86  86 350 350 350 350 350 350 350 350 350 350 350
 434 434 434 434 434 434 434 434 434 434 434 434 434 434 434 434 434 434
 434 434 434 350 350 350 350 350 350 350 350 350 350 350 350 350 350 350]
tot grids = 708658
Drop grids 120247
    CPU time for setting up grids    231.37 sec, wall time     17.05 sec
nelec by numeric integration = 289.9999394701441
    CPU time for vxc    382.81 sec, wall time     27.14 sec
******** <class 'pyscf.df.df.DF'> ********
auxbasis = None
max_memory = 50000
_cderi_to_save = /tmp/job.15971972.hpc/tmpczjgm9wy
Default auxbasis def2-tzvp-jkfit is used for N def2-tzvp
Default auxbasis def2-tzvp-jkfit is used for H def2-tzvp
Default auxbasis def2-tzvp-jkfit is used for S def2-tzvp
Default auxbasis def2-tzvp-jkfit is used for Br def2-tzvp
Default auxbasis def2-tzvp-jkfit is used for C def2-tzvp
Default auxbasis def2-tzvp-jkfit is used for O def2-tzvp
num shells = 1081, num cGTOs = 3357
size of aux basis 3357
int3c2e [1/3], AO [0:312], nrow = 328455
int3c2e [2/3], AO [312:438], nrow = 328776
int3c2e [3/3], AO [438:486], nrow = 160050
    CPU time for cholesky_eri    821.57 sec, wall time    109.71 sec
    CPU time for df vj and vk   2697.59 sec, wall time    252.94 sec
E1 = -14167.92523572745  Ecoul = 5992.61309056266  Exc = -328.51461021572146
init E= -4513.70047365927
cond(S) = 1621609.506690861
    CPU time for initialize scf   3333.34 sec, wall time    299.44 sec
  HOMO = -0.215147447171  LUMO = -0.127039436502941
  mo_energy =
[-4.83275122e+02 -8.90846583e+01 -6.26747609e+01 -5.64484354e+01
 -5.64450163e+01 -5.64448428e+01 -1.92703328e+01 -1.92078319e+01
 -1.91997220e+01 -1.91973225e+01 -1.44571842e+01 -1.44562159e+01
 -1.43926550e+01 -1.03765526e+01 -1.03487094e+01 -1.03470080e+01
 -1.03223121e+01 -1.03212642e+01 -1.03106922e+01 -1.03064082e+01
 -1.03000204e+01 -1.02978130e+01 -1.02933863e+01 -1.02832440e+01
 -1.02803020e+01 -1.02781101e+01 -1.02775801e+01 -1.02770268e+01
 -1.02745425e+01 -1.02689763e+01 -1.02668463e+01 -1.02663669e+01
 -1.02654781e+01 -1.02644068e+01 -1.02628719e+01 -1.02608674e+01
 -1.02591067e+01 -1.02562751e+01 -1.02558769e+01 -1.02473547e+01
 -1.02458840e+01 -8.79369600e+00 -8.06225985e+00 -6.60462720e+00
 -6.59376742e+00 -6.59320541e+00 -5.99810302e+00 -5.99475018e+00
 -5.99242437e+00 -2.69035499e+00 -2.68721977e+00 -2.68678593e+00
 -2.67788997e+00 -2.67788543e+00 -1.14862282e+00 -1.08928541e+00
 -1.08422775e+00 -1.05692499e+00 -1.01575599e+00 -1.00549188e+00
 -9.46845845e-01 -9.35491665e-01 -9.18878251e-01 -9.12667294e-01
 -8.73459018e-01 -8.71137323e-01 -8.53744916e-01 -8.38492589e-01
 -8.06774482e-01 -8.01780885e-01 -7.97617005e-01 -7.90797864e-01
 -7.84403468e-01 -7.80872485e-01 -7.45071773e-01 -7.24893490e-01
 -7.14013493e-01 -6.97005710e-01 -6.73976820e-01 -6.65971933e-01
 -6.57486016e-01 -6.55126055e-01 -6.38220625e-01 -6.23623067e-01
 -6.11368670e-01 -5.99547177e-01 -5.93345841e-01 -5.76688945e-01
 -5.68764415e-01 -5.55750419e-01 -5.48094254e-01 -5.35989148e-01
 -5.16659429e-01 -5.15552229e-01 -5.14091570e-01 -5.07828403e-01
 -5.04331974e-01 -5.00323087e-01 -4.98013341e-01 -4.94666785e-01
 -4.88948542e-01 -4.85330836e-01 -4.81960861e-01 -4.78582938e-01
 -4.66337420e-01 -4.62544905e-01 -4.59223980e-01 -4.54615433e-01
 -4.52845501e-01 -4.47900605e-01 -4.44066853e-01 -4.40206587e-01
 -4.37983736e-01 -4.32101976e-01 -4.29678069e-01 -4.23716896e-01
 -4.20414241e-01 -4.18760786e-01 -4.16008126e-01 -4.10267799e-01
 -4.00169059e-01 -3.95885588e-01 -3.92688828e-01 -3.89199054e-01
 -3.85699703e-01 -3.82721763e-01 -3.76004563e-01 -3.72060084e-01
 -3.67450137e-01 -3.51988775e-01 -3.50465248e-01 -3.41779582e-01
 -3.36525046e-01 -3.17086262e-01 -3.11903988e-01 -3.06793555e-01
 -3.04992436e-01 -2.99902029e-01 -2.95571153e-01 -2.93843809e-01
 -2.92058039e-01 -2.78438450e-01 -2.76735876e-01 -2.51421014e-01
 -2.15147447e-01 -1.27039437e-01 -1.02617920e-01 -6.13937090e-02
 -3.75546783e-02 -3.68476993e-02 -3.28297841e-02 -1.34788975e-02
 -7.83298865e-03 -4.62659850e-03  8.41832461e-03  1.49230723e-02
  2.06196428e-02  2.95766502e-02  3.61665531e-02  4.01933200e-02
  4.30248451e-02  4.71217340e-02  6.55214198e-02  7.00227746e-02
  7.38480846e-02  7.73480390e-02  7.80775001e-02  8.35607278e-02
  8.80846190e-02  9.22622111e-02  9.42229231e-02  9.58390187e-02
  9.76785291e-02  1.01378954e-01  1.04746421e-01  1.06829881e-01
  1.10985692e-01  1.15266448e-01  1.18700921e-01  1.22361816e-01
  1.24993120e-01  1.29906075e-01  1.34495658e-01  1.36808439e-01
  1.38496251e-01  1.49159401e-01  1.52004627e-01  1.53833105e-01
  1.57378827e-01  1.60641604e-01  1.62758371e-01  1.67857685e-01
  1.73236024e-01  1.76447910e-01  1.78447085e-01  1.82026720e-01
  1.82584270e-01  1.87374813e-01  1.90068002e-01  1.94980507e-01
  1.95691032e-01  1.95895152e-01  1.98058484e-01  2.00185445e-01
  2.01313736e-01  2.07750899e-01  2.08488749e-01  2.11222639e-01
  2.13729983e-01  2.16494734e-01  2.19633397e-01  2.24807601e-01
  2.26676324e-01  2.28791315e-01  2.30883162e-01  2.33159734e-01
  2.37588537e-01  2.40541485e-01  2.42018751e-01  2.43807025e-01
  2.44471379e-01  2.52595823e-01  2.53962324e-01  2.58674382e-01
  2.59466394e-01  2.63354485e-01  2.67208087e-01  2.67704722e-01
  2.70510273e-01  2.72199922e-01  2.76482101e-01  2.81173485e-01
  2.82761833e-01  2.83596696e-01  2.85933022e-01  2.91882340e-01
  2.93691002e-01  2.94595085e-01  2.98522742e-01  3.02102788e-01
  3.02317162e-01  3.07411596e-01  3.08687676e-01  3.14114916e-01
  3.17706546e-01  3.20270013e-01  3.22793198e-01  3.24449098e-01
  3.25229362e-01  3.28274486e-01  3.32175800e-01  3.33571409e-01
  3.37696712e-01  3.39603733e-01  3.42200885e-01  3.44973810e-01
  3.46770221e-01  3.49242555e-01  3.52589168e-01  3.55229077e-01
  3.59239364e-01  3.65840466e-01  3.67716519e-01  3.71540589e-01
  3.74304378e-01  3.75448550e-01  3.79328000e-01  3.80726371e-01
  3.84683773e-01  3.86933035e-01  3.89434936e-01  3.93794038e-01
  3.96906080e-01  3.98222246e-01  3.99948596e-01  4.01750378e-01
  4.06426364e-01  4.10735525e-01  4.15223707e-01  4.18399362e-01
  4.19848205e-01  4.22936503e-01  4.24746410e-01  4.27378134e-01
  4.31508682e-01  4.36643506e-01  4.38324118e-01  4.41083546e-01
  4.44354773e-01  4.47635674e-01  4.48968370e-01  4.52953705e-01
  4.54422065e-01  4.56554585e-01  4.62752257e-01  4.66219530e-01
  4.72275227e-01  4.75695113e-01  4.79882837e-01  4.81037880e-01
  4.81450202e-01  4.84673103e-01  4.85046471e-01  4.87916909e-01
  4.90843196e-01  4.96226399e-01  4.97647215e-01  5.03631543e-01
  5.07347859e-01  5.07645636e-01  5.11526122e-01  5.17023372e-01
  5.22147005e-01  5.22732080e-01  5.26281834e-01  5.26507883e-01
  5.30464538e-01  5.32029967e-01  5.44319455e-01  5.47681356e-01
  5.50761463e-01  5.53526128e-01  5.61426986e-01  5.65214834e-01
  5.66201834e-01  5.68077886e-01  5.73394587e-01  5.75568385e-01
  5.80040240e-01  5.84337503e-01  5.85181733e-01  5.88406120e-01
  5.91728090e-01  5.98130836e-01  5.99821923e-01  6.03363456e-01
  6.09656132e-01  6.12140510e-01  6.16683015e-01  6.17808744e-01
  6.22048853e-01  6.25882667e-01  6.30100507e-01  6.38121287e-01
  6.39576181e-01  6.41208009e-01  6.43302190e-01  6.43963597e-01
  6.49146825e-01  6.50984532e-01  6.52230266e-01  6.54802367e-01
  6.58019162e-01  6.62487142e-01  6.65918030e-01  6.68510863e-01
  6.72728891e-01  6.76575374e-01  6.78294633e-01  6.80561710e-01
  6.82026423e-01  6.85910460e-01  6.90646915e-01  6.93121069e-01
  6.96277604e-01  6.98332268e-01  7.01509420e-01  7.04658835e-01
  7.09116031e-01  7.12687432e-01  7.14818006e-01  7.20927967e-01
  7.21524797e-01  7.29342464e-01  7.30973156e-01  7.32672696e-01
  7.36713161e-01  7.38754638e-01  7.40092356e-01  7.47608499e-01
  7.53789476e-01  7.57265076e-01  7.59814264e-01  7.63266580e-01
  7.71012106e-01  7.75308770e-01  7.79623053e-01  7.84130049e-01
  7.88315394e-01  7.91957913e-01  7.96198305e-01  7.97395616e-01
  8.00742250e-01  8.02782070e-01  8.12336241e-01  8.16314123e-01
  8.21499950e-01  8.22232969e-01  8.24107240e-01  8.27968338e-01
  8.31313856e-01  8.38190232e-01  8.41910692e-01  8.46255294e-01
  8.47299231e-01  8.55695814e-01  8.60335935e-01  8.61494408e-01
  8.68433218e-01  8.74815502e-01  8.78258329e-01  8.85393388e-01
  8.88291807e-01  8.93033732e-01  8.97514180e-01  9.02679511e-01
  9.03558720e-01  9.08534580e-01  9.11593611e-01  9.21543111e-01
  9.23858704e-01  9.25747751e-01  9.34713196e-01  9.41309927e-01
  9.42952188e-01  9.45840694e-01  9.49706202e-01  9.51219137e-01
  9.60936406e-01  9.66040143e-01  9.73333681e-01  9.77096309e-01
  9.80760261e-01  9.83318931e-01  9.87160339e-01  9.92109633e-01
  9.97376355e-01  1.00103469e+00  1.00509733e+00  1.01349863e+00
  1.01625872e+00  1.01888099e+00  1.01959388e+00  1.02644701e+00
  1.03244362e+00  1.03433298e+00  1.03639909e+00  1.04264739e+00
  1.04337451e+00  1.05014324e+00  1.05677949e+00  1.05769854e+00
  1.06243138e+00  1.06645402e+00  1.07167576e+00  1.07490770e+00
  1.08329049e+00  1.09210575e+00  1.09594711e+00  1.09787285e+00
  1.10353276e+00  1.10998303e+00  1.11982550e+00  1.12629213e+00
  1.12991339e+00  1.13431213e+00  1.13706774e+00  1.14209887e+00
  1.14398876e+00  1.15300306e+00  1.15692935e+00  1.17015306e+00
  1.17453370e+00  1.17919307e+00  1.18774650e+00  1.18938620e+00
  1.19131113e+00  1.19711044e+00  1.20492106e+00  1.21458919e+00
  1.21962160e+00  1.22206372e+00  1.22916351e+00  1.23195521e+00
  1.23554604e+00  1.23865010e+00  1.24452481e+00  1.25044807e+00
  1.25784700e+00  1.26470781e+00  1.26505376e+00  1.26905982e+00
  1.27378363e+00  1.27493194e+00  1.28243177e+00  1.28912383e+00
  1.29137247e+00  1.29400824e+00  1.29894054e+00  1.30486427e+00
  1.30648442e+00  1.31036187e+00  1.32304447e+00  1.32865765e+00
  1.33178727e+00  1.33450123e+00  1.33997591e+00  1.34841048e+00
  1.35394471e+00  1.35495288e+00  1.36104234e+00  1.36727639e+00
  1.36851913e+00  1.37106867e+00  1.37864436e+00  1.38020442e+00
  1.38505989e+00  1.38672148e+00  1.38880323e+00  1.39669141e+00
  1.41246717e+00  1.41507881e+00  1.42588220e+00  1.42795764e+00
  1.43663401e+00  1.43921838e+00  1.44382465e+00  1.44697394e+00
  1.44916436e+00  1.45249697e+00  1.45662491e+00  1.45857570e+00
  1.46147136e+00  1.46529595e+00  1.46760546e+00  1.47512607e+00
  1.48102138e+00  1.48346961e+00  1.48824524e+00  1.48934584e+00
  1.49059897e+00  1.49904032e+00  1.50593806e+00  1.50826743e+00
  1.50923918e+00  1.51416107e+00  1.51674572e+00  1.51997336e+00
  1.52574478e+00  1.52866752e+00  1.53190848e+00  1.53292996e+00
  1.53801140e+00  1.54081802e+00  1.54366179e+00  1.54503388e+00
  1.54939564e+00  1.55422676e+00  1.55930484e+00  1.56104167e+00
  1.56489234e+00  1.56792566e+00  1.57659526e+00  1.58213877e+00
  1.58552086e+00  1.58712755e+00  1.59053633e+00  1.59510916e+00
  1.59547200e+00  1.60198442e+00  1.60519661e+00  1.60641414e+00
  1.60987519e+00  1.61932502e+00  1.62498052e+00  1.62787233e+00
  1.63142655e+00  1.63529031e+00  1.63788491e+00  1.64595627e+00
  1.64711475e+00  1.66113290e+00  1.66298753e+00  1.67053990e+00
  1.67279182e+00  1.67868433e+00  1.68631326e+00  1.69369754e+00
  1.69753289e+00  1.70159456e+00  1.70340025e+00  1.70566061e+00
  1.70688223e+00  1.71286456e+00  1.71510629e+00  1.71815846e+00
  1.71921720e+00  1.72741158e+00  1.73178705e+00  1.73310147e+00
  1.73818340e+00  1.74487960e+00  1.74979291e+00  1.75203400e+00
  1.75880298e+00  1.76907055e+00  1.77650393e+00  1.77877845e+00
  1.78124471e+00  1.79308710e+00  1.79626236e+00  1.80269519e+00
  1.80401805e+00  1.80993088e+00  1.81549962e+00  1.82516140e+00
  1.83005347e+00  1.83805028e+00  1.84652170e+00  1.85247080e+00
  1.85435629e+00  1.85974442e+00  1.86282730e+00  1.86896009e+00
  1.87310346e+00  1.87791131e+00  1.88129907e+00  1.88248591e+00
  1.88577943e+00  1.88816559e+00  1.89518914e+00  1.89811800e+00
  1.90398773e+00  1.90818256e+00  1.91524602e+00  1.91894692e+00
  1.92572187e+00  1.92972696e+00  1.93466517e+00  1.93874642e+00
  1.94548294e+00  1.94980745e+00  1.96006360e+00  1.96578624e+00
  1.96858985e+00  1.97260985e+00  1.97931460e+00  1.98690505e+00
  1.99397500e+00  1.99928297e+00  2.00528162e+00  2.00688777e+00
  2.01926183e+00  2.02470370e+00  2.02658374e+00  2.03113621e+00
  2.03703466e+00  2.04859989e+00  2.05355450e+00  2.05834646e+00
  2.06017920e+00  2.06398564e+00  2.07003260e+00  2.07607564e+00
  2.08171921e+00  2.08594296e+00  2.09295555e+00  2.09460064e+00
  2.10234501e+00  2.10735424e+00  2.11343937e+00  2.13235513e+00
  2.14108409e+00  2.14248122e+00  2.14923326e+00  2.15281458e+00
  2.15362245e+00  2.15937855e+00  2.16092516e+00  2.16511200e+00
  2.18395541e+00  2.18490392e+00  2.19333509e+00  2.19972480e+00
  2.20114320e+00  2.20783791e+00  2.20946703e+00  2.21649770e+00
  2.21921670e+00  2.22314033e+00  2.23621282e+00  2.24404226e+00
  2.24819281e+00  2.25574123e+00  2.25728190e+00  2.27427010e+00
  2.27592383e+00  2.27992456e+00  2.29627253e+00  2.29796010e+00
  2.30198295e+00  2.30711763e+00  2.30859393e+00  2.31569668e+00
  2.31892906e+00  2.32315970e+00  2.32837382e+00  2.33715765e+00
  2.34213750e+00  2.34812747e+00  2.35188917e+00  2.36325621e+00
  2.37646646e+00  2.38564774e+00  2.39607059e+00  2.39797429e+00
  2.40407421e+00  2.40853409e+00  2.41562220e+00  2.42808561e+00
  2.43016095e+00  2.43180553e+00  2.43745539e+00  2.44198111e+00
  2.44770553e+00  2.45198099e+00  2.45797190e+00  2.46949912e+00
  2.47554132e+00  2.47958680e+00  2.48577198e+00  2.49189312e+00
  2.50633199e+00  2.51179421e+00  2.51500964e+00  2.52818243e+00
  2.53254548e+00  2.53553152e+00  2.53926552e+00  2.54459561e+00
  2.54864129e+00  2.55351722e+00  2.55847921e+00  2.56511202e+00
  2.56689752e+00  2.56882790e+00  2.57781918e+00  2.57982466e+00
  2.58680161e+00  2.58766974e+00  2.59189647e+00  2.60088814e+00
  2.61104750e+00  2.61491514e+00  2.61869847e+00  2.62925554e+00
  2.63321451e+00  2.63363962e+00  2.64137271e+00  2.64654041e+00
  2.65432480e+00  2.65856405e+00  2.66125384e+00  2.66752819e+00
  2.67551312e+00  2.67779650e+00  2.68199352e+00  2.68733450e+00
  2.69490425e+00  2.69765722e+00  2.70100321e+00  2.70288525e+00
  2.70452581e+00  2.71275443e+00  2.71835157e+00  2.71914375e+00
  2.72082351e+00  2.72632933e+00  2.73041619e+00  2.73674060e+00
  2.73989589e+00  2.74522350e+00  2.74966694e+00  2.75233688e+00
  2.75920705e+00  2.76223841e+00  2.76425705e+00  2.77704918e+00
  2.78133986e+00  2.78469457e+00  2.78782552e+00  2.79208639e+00
  2.79444997e+00  2.79552006e+00  2.80494311e+00  2.80892906e+00
  2.81505194e+00  2.82300053e+00  2.82910574e+00  2.83366263e+00
  2.83621291e+00  2.83975718e+00  2.84119795e+00  2.84506620e+00
  2.85277522e+00  2.85672392e+00  2.85922324e+00  2.86498406e+00
  2.86681261e+00  2.86919864e+00  2.87569784e+00  2.88177371e+00
  2.88549403e+00  2.88664628e+00  2.89274760e+00  2.90236615e+00
  2.90770334e+00  2.91678088e+00  2.92286855e+00  2.92670607e+00
  2.93095305e+00  2.93510073e+00  2.94440307e+00  2.94794181e+00
  2.95121592e+00  2.95773994e+00  2.96287366e+00  2.96767131e+00
  2.97309484e+00  2.97592284e+00  2.98006001e+00  2.98490010e+00
  2.98843656e+00  2.99076535e+00  2.99199879e+00  2.99430939e+00
  2.99883889e+00  3.00128584e+00  3.00835365e+00  3.01340115e+00
  3.01875491e+00  3.02001007e+00  3.02328566e+00  3.02625628e+00
  3.02779079e+00  3.03498495e+00  3.04036055e+00  3.04719574e+00
  3.05205457e+00  3.05918978e+00  3.06196522e+00  3.06755286e+00
  3.06994480e+00  3.07911779e+00  3.08273954e+00  3.08480360e+00
  3.08707904e+00  3.09139533e+00  3.09715152e+00  3.10422827e+00
  3.10631201e+00  3.11270057e+00  3.11331891e+00  3.11677017e+00
  3.11761491e+00  3.12183065e+00  3.13316967e+00  3.13553688e+00
  3.14737324e+00  3.15188174e+00  3.15394467e+00  3.15574278e+00
  3.15924092e+00  3.16488464e+00  3.16806575e+00  3.17464770e+00
  3.17901509e+00  3.18309763e+00  3.18447603e+00  3.18571683e+00
  3.19312915e+00  3.19671479e+00  3.19826805e+00  3.20128116e+00
  3.20500522e+00  3.20689232e+00  3.20932277e+00  3.21350831e+00
  3.21946274e+00  3.22187537e+00  3.22841263e+00  3.23134887e+00
  3.23496411e+00  3.24041654e+00  3.24520376e+00  3.24898185e+00
  3.25333445e+00  3.25801480e+00  3.25860820e+00  3.26548092e+00
  3.27528130e+00  3.28226833e+00  3.28303243e+00  3.28330862e+00
  3.28912231e+00  3.29255775e+00  3.29978716e+00  3.30110372e+00
  3.30582339e+00  3.30842659e+00  3.31573959e+00  3.32113501e+00
  3.32230074e+00  3.32384728e+00  3.32843069e+00  3.33071334e+00
  3.33160036e+00  3.33537304e+00  3.34162281e+00  3.34545716e+00
  3.34870092e+00  3.35260405e+00  3.35367089e+00  3.36065105e+00
  3.36983632e+00  3.37114994e+00  3.37615130e+00  3.38034693e+00
  3.38237107e+00  3.38498475e+00  3.39193315e+00  3.39589125e+00
  3.40187438e+00  3.40509073e+00  3.40963243e+00  3.41126838e+00
  3.41719171e+00  3.42096462e+00  3.42758096e+00  3.43534753e+00
  3.43915054e+00  3.43990800e+00  3.44229424e+00  3.44677083e+00
  3.45144181e+00  3.45544265e+00  3.45780476e+00  3.46372247e+00
  3.46524762e+00  3.46740793e+00  3.46941989e+00  3.47817138e+00
  3.48151929e+00  3.48191489e+00  3.48572789e+00  3.48955955e+00
  3.49779519e+00  3.50108261e+00  3.50723225e+00  3.51321844e+00
  3.51512020e+00  3.52050803e+00  3.52178704e+00  3.53675592e+00
  3.54202398e+00  3.54351772e+00  3.54497938e+00  3.55207476e+00
  3.55598074e+00  3.56061296e+00  3.56522011e+00  3.57642356e+00
  3.57938745e+00  3.58858946e+00  3.59348495e+00  3.59912348e+00
  3.60362621e+00  3.61083467e+00  3.61402931e+00  3.62502040e+00
  3.62898897e+00  3.63216019e+00  3.64145358e+00  3.64326803e+00
  3.65504439e+00  3.65634833e+00  3.66566409e+00  3.67331793e+00
  3.68184136e+00  3.69170517e+00  3.69854138e+00  3.70769435e+00
  3.71541770e+00  3.71816884e+00  3.73966634e+00  3.74133257e+00
  3.75770141e+00  3.75978972e+00  3.76615660e+00  3.76926687e+00
  3.77083013e+00  3.77564264e+00  3.77853113e+00  3.79324758e+00
  3.81167906e+00  3.82630347e+00  3.83051592e+00  3.83444681e+00
  3.84792147e+00  3.85327010e+00  3.86166876e+00  3.86922410e+00
  3.87523959e+00  3.87660188e+00  3.89946560e+00  3.91510535e+00
  3.91866138e+00  3.93113490e+00  3.93484103e+00  3.94472394e+00
  3.96085902e+00  3.96751560e+00  3.96761599e+00  3.98926083e+00
  3.99751916e+00  4.00065639e+00  4.01030443e+00  4.01371492e+00
  4.02192309e+00  4.02379055e+00  4.02993923e+00  4.04087633e+00
  4.04595171e+00  4.05467032e+00  4.06514433e+00  4.06753645e+00
  4.07101726e+00  4.07404349e+00  4.08419547e+00  4.08538034e+00
  4.09466980e+00  4.10280156e+00  4.10785516e+00  4.11365938e+00
  4.11747092e+00  4.12841846e+00  4.13296247e+00  4.14015979e+00
  4.14682473e+00  4.15109468e+00  4.15449345e+00  4.16190602e+00
  4.16522605e+00  4.17538051e+00  4.18208204e+00  4.19110158e+00
  4.19323831e+00  4.19553572e+00  4.20399523e+00  4.20554826e+00
  4.21314319e+00  4.22744703e+00  4.23269024e+00  4.23722996e+00
  4.24433065e+00  4.25769155e+00  4.25982355e+00  4.26915835e+00
  4.27567766e+00  4.27813022e+00  4.28233447e+00  4.29810566e+00
  4.30772172e+00  4.31101637e+00  4.31578253e+00  4.34176154e+00
  4.34333464e+00  4.34818046e+00  4.36790952e+00  4.37190611e+00
  4.38226308e+00  4.38434113e+00  4.39158488e+00  4.41063924e+00
  4.41312872e+00  4.41925659e+00  4.42183377e+00  4.43813896e+00
  4.44503167e+00  4.45077723e+00  4.46575178e+00  4.46638943e+00
  4.48269320e+00  4.48836637e+00  4.51021412e+00  4.51546879e+00
  4.51606872e+00  4.53314935e+00  4.53919947e+00  4.55118581e+00
  4.56415076e+00  4.56638936e+00  4.58230034e+00  4.59518579e+00
  4.61514381e+00  4.61944407e+00  4.63025554e+00  4.64386808e+00
  4.65148168e+00  4.66382543e+00  4.66942498e+00  4.68654753e+00
  4.69079136e+00  4.70572380e+00  4.71401416e+00  4.72808423e+00
  4.72918294e+00  4.74914795e+00  4.76585321e+00  4.78282929e+00
  4.78702755e+00  4.79436264e+00  4.81948643e+00  4.83462092e+00
  4.85152857e+00  4.85605434e+00  4.86822269e+00  4.87844464e+00
  4.88006120e+00  4.91083143e+00  4.92061983e+00  4.92940880e+00
  4.93647895e+00  4.95775996e+00  4.96822111e+00  4.97964936e+00
  4.98982320e+00  4.99448566e+00  5.00536068e+00  5.03144707e+00
  5.03783330e+00  5.05773769e+00  5.06388051e+00  5.07404892e+00
  5.09910650e+00  5.10297938e+00  5.12631828e+00  5.13995019e+00
  5.14273035e+00  5.14417684e+00  5.14987318e+00  5.16510979e+00
  5.18190026e+00  5.18203045e+00  5.18788068e+00  5.19514309e+00
  5.20973783e+00  5.22255283e+00  5.22467786e+00  5.23315342e+00
  5.25273714e+00  5.25403365e+00  5.25733048e+00  5.26954717e+00
  5.29102650e+00  5.29798425e+00  5.30759984e+00  5.32942078e+00
  5.35389640e+00  5.36419649e+00  5.37339984e+00  5.38238363e+00
  5.39519782e+00  5.41387607e+00  5.43779505e+00  5.45328514e+00
  5.47287411e+00  5.48079185e+00  5.49392585e+00  5.49856726e+00
  5.50542930e+00  5.52094101e+00  5.55502770e+00  5.59169406e+00
  5.60121607e+00  5.62434059e+00  5.62933663e+00  5.63876087e+00
  5.66905085e+00  5.67298477e+00  5.68221699e+00  5.69450862e+00
  5.70147623e+00  5.73930622e+00  5.76913862e+00  5.80100119e+00
  5.82614386e+00  5.85450459e+00  5.87210199e+00  5.87290745e+00
  5.94957017e+00  5.99798897e+00  6.02212530e+00  6.03709676e+00
  6.06076055e+00  6.14883532e+00  6.15173068e+00  6.15437548e+00
  6.17110968e+00  6.17951878e+00  6.22361952e+00  6.30527155e+00
  6.32151676e+00  6.39110245e+00  6.41496361e+00  6.42215702e+00
  6.42617885e+00  6.43597311e+00  6.44766000e+00  6.52389707e+00
  6.61797312e+00  6.63423618e+00  6.70021879e+00  6.72931253e+00
  6.75486233e+00  6.81823593e+00  6.83033109e+00  6.84767409e+00
  6.85133646e+00  6.92376002e+00  6.95021201e+00  7.10717899e+00
  7.10839695e+00  7.13818691e+00  7.16748362e+00  7.18970418e+00
  7.19399173e+00  7.39528651e+00  7.77739015e+00  8.89787259e+00
  9.51112904e+00  9.52851433e+00  2.03310776e+01  2.22660193e+01
  2.23303762e+01  2.24887104e+01  2.25051718e+01  2.25245417e+01
  2.26553781e+01  2.26758109e+01  2.26863034e+01  2.26982425e+01
  2.27233209e+01  2.27442564e+01  2.27545753e+01  2.27878130e+01
  2.28113683e+01  2.28152836e+01  2.29014725e+01  2.29193115e+01
  2.29890476e+01  2.30889678e+01  2.31828327e+01  2.31975869e+01
  2.32781013e+01  2.33264171e+01  2.35252348e+01  2.35759068e+01
  2.35993950e+01  2.37463934e+01  2.38673168e+01  3.22201633e+01
  3.30034192e+01  3.30805261e+01  4.39319276e+01  4.39976693e+01
  4.41122744e+01  4.41189523e+01]
nelec by numeric integration = 289.9999394701131
    CPU time for vxc    290.16 sec, wall time     20.30 sec
    CPU time for df vj and vk   1868.32 sec, wall time    139.76 sec
E1 = -14167.925158579397  Ecoul = 5992.613022109069  Exc = -328.5146189098692
cycle= 1 E= -4513.70047365896  delta_E= 3.15e-10  |g|= 4.02e-05  |ddm|= 6.85e-05
    CPU time for cycle= 1   2172.27 sec, wall time    161.70 sec
  HOMO = -0.215148393279878  LUMO = -0.127040005926794
  mo_energy =
[-4.83275121e+02 -8.90846593e+01 -6.26747592e+01 -5.64484336e+01
 -5.64450145e+01 -5.64448410e+01 -1.92703471e+01 -1.92078172e+01
 -1.91997088e+01 -1.91973127e+01 -1.44571973e+01 -1.44562061e+01
 -1.43926532e+01 -1.03765595e+01 -1.03487177e+01 -1.03470030e+01
 -1.03223291e+01 -1.03212560e+01 -1.03106886e+01 -1.03064068e+01
 -1.03000167e+01 -1.02978135e+01 -1.02933969e+01 -1.02832467e+01
 -1.02802964e+01 -1.02781205e+01 -1.02775837e+01 -1.02770232e+01
 -1.02745458e+01 -1.02689693e+01 -1.02668415e+01 -1.02663713e+01
 -1.02654750e+01 -1.02644070e+01 -1.02628707e+01 -1.02608704e+01
 -1.02591073e+01 -1.02562812e+01 -1.02558752e+01 -1.02473613e+01
 -1.02458903e+01 -8.79369449e+00 -8.06226054e+00 -6.60462568e+00
 -6.59376591e+00 -6.59320390e+00 -5.99810374e+00 -5.99475087e+00
 -5.99242510e+00 -2.69035348e+00 -2.68721825e+00 -2.68678442e+00
 -2.67788847e+00 -2.67788392e+00 -1.14862692e+00 -1.08928430e+00
 -1.08422413e+00 -1.05692463e+00 -1.01575731e+00 -1.00549214e+00
 -9.46844559e-01 -9.35492034e-01 -9.18880283e-01 -9.12666042e-01
 -8.73460954e-01 -8.71139971e-01 -8.53747107e-01 -8.38491895e-01
 -8.06775520e-01 -8.01780650e-01 -7.97619011e-01 -7.90797163e-01
 -7.84404688e-01 -7.80872286e-01 -7.45072158e-01 -7.24895972e-01
 -7.14015076e-01 -6.97005882e-01 -6.73981382e-01 -6.65973319e-01
 -6.57487325e-01 -6.55124991e-01 -6.38222611e-01 -6.23624739e-01
 -6.11370253e-01 -5.99546230e-01 -5.93346013e-01 -5.76688500e-01
 -5.68766847e-01 -5.55751508e-01 -5.48095257e-01 -5.35990295e-01
 -5.16659350e-01 -5.15554511e-01 -5.14092241e-01 -5.07828583e-01
 -5.04332659e-01 -5.00324763e-01 -4.98014594e-01 -4.94666094e-01
 -4.88948193e-01 -4.85333934e-01 -4.81959387e-01 -4.78582863e-01
 -4.66337553e-01 -4.62545688e-01 -4.59223804e-01 -4.54615656e-01
 -4.52845625e-01 -4.47899669e-01 -4.44067502e-01 -4.40205812e-01
 -4.37983610e-01 -4.32100512e-01 -4.29680047e-01 -4.23718301e-01
 -4.20413235e-01 -4.18760262e-01 -4.16007214e-01 -4.10268969e-01
 -4.00167851e-01 -3.95886643e-01 -3.92688299e-01 -3.89200601e-01
 -3.85699281e-01 -3.82724080e-01 -3.76006505e-01 -3.72058875e-01
 -3.67449003e-01 -3.51989463e-01 -3.50465559e-01 -3.41779246e-01
 -3.36525950e-01 -3.17085373e-01 -3.11901066e-01 -3.06790804e-01
 -3.04991093e-01 -2.99901301e-01 -2.95572369e-01 -2.93843015e-01
 -2.92055892e-01 -2.78440258e-01 -2.76737896e-01 -2.51420461e-01
 -2.15148393e-01 -1.27040006e-01 -1.02618587e-01 -6.13940972e-02
 -3.75541054e-02 -3.68496915e-02 -3.28299486e-02 -1.34790598e-02
 -7.83219117e-03 -4.62719246e-03  8.41704689e-03  1.49228010e-02
  2.06186482e-02  2.95777507e-02  3.61646369e-02  4.01918994e-02
  4.30260614e-02  4.71228019e-02  6.55212359e-02  7.00217868e-02
  7.38482075e-02  7.73479851e-02  7.80773654e-02  8.35608737e-02
  8.80844936e-02  9.22612403e-02  9.42219377e-02  9.58387720e-02
  9.76777851e-02  1.01379321e-01  1.04746123e-01  1.06829131e-01
  1.10985483e-01  1.15266191e-01  1.18700200e-01  1.22361290e-01
  1.24992294e-01  1.29906112e-01  1.34495944e-01  1.36806693e-01
  1.38495095e-01  1.49158384e-01  1.52004328e-01  1.53832099e-01
  1.57377591e-01  1.60641290e-01  1.62757963e-01  1.67857090e-01
  1.73235561e-01  1.76447513e-01  1.78446748e-01  1.82025848e-01
  1.82585338e-01  1.87374921e-01  1.90067846e-01  1.94979961e-01
  1.95690483e-01  1.95894209e-01  1.98058749e-01  2.00185082e-01
  2.01313329e-01  2.07750907e-01  2.08487819e-01  2.11221840e-01
  2.13729118e-01  2.16493487e-01  2.19633049e-01  2.24806878e-01
  2.26675659e-01  2.28790979e-01  2.30883192e-01  2.33159207e-01
  2.37588247e-01  2.40541720e-01  2.42018419e-01  2.43807066e-01
  2.44470613e-01  2.52595256e-01  2.53961932e-01  2.58674074e-01
  2.59465880e-01  2.63353846e-01  2.67207423e-01  2.67703853e-01
  2.70509854e-01  2.72199166e-01  2.76481134e-01  2.81173084e-01
  2.82761592e-01  2.83595836e-01  2.85932544e-01  2.91882119e-01
  2.93690613e-01  2.94595154e-01  2.98521806e-01  3.02102895e-01
  3.02316748e-01  3.07410770e-01  3.08687692e-01  3.14114538e-01
  3.17706081e-01  3.20269925e-01  3.22793274e-01  3.24448674e-01
  3.25228648e-01  3.28273959e-01  3.32174943e-01  3.33570082e-01
  3.37696485e-01  3.39603325e-01  3.42200333e-01  3.44973108e-01
  3.46770023e-01  3.49242044e-01  3.52588743e-01  3.55228771e-01
  3.59238995e-01  3.65839713e-01  3.67716018e-01  3.71540386e-01
  3.74304131e-01  3.75448604e-01  3.79327778e-01  3.80726109e-01
  3.84683813e-01  3.86932047e-01  3.89434747e-01  3.93793290e-01
  3.96906059e-01  3.98222250e-01  3.99948450e-01  4.01750130e-01
  4.06426442e-01  4.10734772e-01  4.15224077e-01  4.18399086e-01
  4.19847886e-01  4.22935704e-01  4.24745948e-01  4.27377695e-01
  4.31507937e-01  4.36643250e-01  4.38324305e-01  4.41082878e-01
  4.44354358e-01  4.47635023e-01  4.48968057e-01  4.52953761e-01
  4.54421413e-01  4.56554049e-01  4.62751556e-01  4.66219081e-01
  4.72274992e-01  4.75693567e-01  4.79882442e-01  4.81037511e-01
  4.81449930e-01  4.84672306e-01  4.85046170e-01  4.87917002e-01
  4.90843004e-01  4.96225649e-01  4.97646774e-01  5.03630935e-01
  5.07346838e-01  5.07645038e-01  5.11525552e-01  5.17022968e-01
  5.22146845e-01  5.22731593e-01  5.26281262e-01  5.26507675e-01
  5.30463889e-01  5.32029596e-01  5.44319322e-01  5.47680863e-01
  5.50761791e-01  5.53525446e-01  5.61426639e-01  5.65214231e-01
  5.66201335e-01  5.68076468e-01  5.73394343e-01  5.75567882e-01
  5.80040050e-01  5.84336686e-01  5.85180838e-01  5.88406302e-01
  5.91726894e-01  5.98131023e-01  5.99821575e-01  6.03362621e-01
  6.09655403e-01  6.12140203e-01  6.16682893e-01  6.17808689e-01
  6.22048858e-01  6.25882208e-01  6.30099985e-01  6.38120355e-01
  6.39575387e-01  6.41207160e-01  6.43302185e-01  6.43963336e-01
  6.49146699e-01  6.50984153e-01  6.52229714e-01  6.54801257e-01
  6.58018466e-01  6.62486940e-01  6.65918213e-01  6.68509979e-01
  6.72728397e-01  6.76574550e-01  6.78294281e-01  6.80560970e-01
  6.82025894e-01  6.85909789e-01  6.90646305e-01  6.93120513e-01
  6.96277088e-01  6.98332033e-01  7.01509028e-01  7.04658089e-01
  7.09115946e-01  7.12686950e-01  7.14817730e-01  7.20927934e-01
  7.21524629e-01  7.29341600e-01  7.30972665e-01  7.32672612e-01
  7.36712525e-01  7.38753513e-01  7.40091987e-01  7.47607904e-01
  7.53789054e-01  7.57264133e-01  7.59813409e-01  7.63266096e-01
  7.71011626e-01  7.75308435e-01  7.79621649e-01  7.84130009e-01
  7.88314547e-01  7.91957832e-01  7.96198114e-01  7.97394270e-01
  8.00742444e-01  8.02781597e-01  8.12336174e-01  8.16313505e-01
  8.21499620e-01  8.22232272e-01  8.24106967e-01  8.27967603e-01
  8.31313963e-01  8.38189503e-01  8.41910487e-01  8.46255447e-01
  8.47298853e-01  8.55696160e-01  8.60335496e-01  8.61493697e-01
  8.68432958e-01  8.74814766e-01  8.78258182e-01  8.85392931e-01
  8.88291510e-01  8.93033241e-01  8.97513653e-01  9.02679078e-01
  9.03558910e-01  9.08534362e-01  9.11593480e-01  9.21543182e-01
  9.23858283e-01  9.25746706e-01  9.34712784e-01  9.41309359e-01
  9.42952239e-01  9.45840455e-01  9.49705234e-01  9.51218930e-01
  9.60935587e-01  9.66039929e-01  9.73333397e-01  9.77095804e-01
  9.80759323e-01  9.83318760e-01  9.87160138e-01  9.92109023e-01
  9.97375823e-01  1.00103466e+00  1.00509649e+00  1.01349797e+00
  1.01625797e+00  1.01888010e+00  1.01959322e+00  1.02644638e+00
  1.03244284e+00  1.03433219e+00  1.03639837e+00  1.04264645e+00
  1.04337465e+00  1.05014293e+00  1.05677916e+00  1.05769842e+00
  1.06243149e+00  1.06645337e+00  1.07167564e+00  1.07490757e+00
  1.08329051e+00  1.09210575e+00  1.09594664e+00  1.09787105e+00
  1.10353239e+00  1.10998186e+00  1.11982578e+00  1.12629163e+00
  1.12991335e+00  1.13431161e+00  1.13706711e+00  1.14209844e+00
  1.14398852e+00  1.15300218e+00  1.15692863e+00  1.17015275e+00
  1.17453247e+00  1.17919254e+00  1.18774593e+00  1.18938526e+00
  1.19131135e+00  1.19710933e+00  1.20492037e+00  1.21458816e+00
  1.21962077e+00  1.22206221e+00  1.22916333e+00  1.23195417e+00
  1.23554496e+00  1.23864931e+00  1.24452520e+00  1.25044698e+00
  1.25784528e+00  1.26470598e+00  1.26505276e+00  1.26905985e+00
  1.27378309e+00  1.27493249e+00  1.28243129e+00  1.28912257e+00
  1.29137189e+00  1.29400793e+00  1.29894033e+00  1.30486388e+00
  1.30648360e+00  1.31036134e+00  1.32304478e+00  1.32865745e+00
  1.33178604e+00  1.33450078e+00  1.33997617e+00  1.34841073e+00
  1.35394410e+00  1.35495208e+00  1.36104081e+00  1.36727618e+00
  1.36851880e+00  1.37106798e+00  1.37864448e+00  1.38020384e+00
  1.38505844e+00  1.38672141e+00  1.38880309e+00  1.39669184e+00
  1.41246478e+00  1.41507892e+00  1.42588295e+00  1.42795725e+00
  1.43663297e+00  1.43921786e+00  1.44382602e+00  1.44697299e+00
  1.44916338e+00  1.45249700e+00  1.45662485e+00  1.45857513e+00
  1.46147068e+00  1.46529545e+00  1.46760487e+00  1.47512462e+00
  1.48102229e+00  1.48346825e+00  1.48824537e+00  1.48934570e+00
  1.49059885e+00  1.49904006e+00  1.50593785e+00  1.50826638e+00
  1.50923883e+00  1.51416073e+00  1.51674558e+00  1.51997320e+00
  1.52574396e+00  1.52866721e+00  1.53190843e+00  1.53292855e+00
  1.53801158e+00  1.54081755e+00  1.54366216e+00  1.54503391e+00
  1.54939569e+00  1.55422703e+00  1.55930380e+00  1.56104197e+00
  1.56489122e+00  1.56792596e+00  1.57659448e+00  1.58213892e+00
  1.58552102e+00  1.58712730e+00  1.59053699e+00  1.59510860e+00
  1.59547193e+00  1.60198429e+00  1.60519568e+00  1.60641404e+00
  1.60987474e+00  1.61932475e+00  1.62498003e+00  1.62787125e+00
  1.63142606e+00  1.63528985e+00  1.63788420e+00  1.64595619e+00
  1.64711414e+00  1.66113263e+00  1.66298731e+00  1.67053946e+00
  1.67279208e+00  1.67868364e+00  1.68631226e+00  1.69369696e+00
  1.69753333e+00  1.70159398e+00  1.70340032e+00  1.70566080e+00
  1.70688214e+00  1.71286316e+00  1.71510638e+00  1.71815745e+00
  1.71921556e+00  1.72741147e+00  1.73178741e+00  1.73310053e+00
  1.73818254e+00  1.74487853e+00  1.74979222e+00  1.75203355e+00
  1.75880292e+00  1.76906957e+00  1.77650309e+00  1.77877800e+00
  1.78124445e+00  1.79308698e+00  1.79626182e+00  1.80269517e+00
  1.80401790e+00  1.80993088e+00  1.81549953e+00  1.82516054e+00
  1.83005304e+00  1.83804975e+00  1.84651969e+00  1.85247043e+00
  1.85435541e+00  1.85974370e+00  1.86282680e+00  1.86896045e+00
  1.87310266e+00  1.87791167e+00  1.88129823e+00  1.88248581e+00
  1.88577929e+00  1.88816431e+00  1.89518873e+00  1.89811786e+00
  1.90398543e+00  1.90818333e+00  1.91524560e+00  1.91894638e+00
  1.92572175e+00  1.92972613e+00  1.93466522e+00  1.93874652e+00
  1.94548212e+00  1.94980660e+00  1.96006378e+00  1.96578569e+00
  1.96858875e+00  1.97260863e+00  1.97931408e+00  1.98690443e+00
  1.99397280e+00  1.99928302e+00  2.00527984e+00  2.00688775e+00
  2.01926091e+00  2.02470331e+00  2.02658392e+00  2.03113433e+00
  2.03703503e+00  2.04859922e+00  2.05355334e+00  2.05834521e+00
  2.06017816e+00  2.06398547e+00  2.07003235e+00  2.07607451e+00
  2.08171864e+00  2.08594389e+00  2.09295457e+00  2.09459791e+00
  2.10234471e+00  2.10735441e+00  2.11343942e+00  2.13235338e+00
  2.14108403e+00  2.14248148e+00  2.14923139e+00  2.15281437e+00
  2.15362188e+00  2.15937811e+00  2.16092465e+00  2.16511032e+00
  2.18395516e+00  2.18490249e+00  2.19333484e+00  2.19972404e+00
  2.20114214e+00  2.20783744e+00  2.20946650e+00  2.21649693e+00
  2.21921744e+00  2.22313843e+00  2.23621192e+00  2.24404224e+00
  2.24819258e+00  2.25574081e+00  2.25728139e+00  2.27426945e+00
  2.27592363e+00  2.27992431e+00  2.29627294e+00  2.29795896e+00
  2.30198270e+00  2.30711660e+00  2.30859368e+00  2.31569699e+00
  2.31892896e+00  2.32315875e+00  2.32837391e+00  2.33715722e+00
  2.34213705e+00  2.34812599e+00  2.35188924e+00  2.36325484e+00
  2.37646564e+00  2.38564748e+00  2.39606863e+00  2.39797439e+00
  2.40407458e+00  2.40853389e+00  2.41562271e+00  2.42808517e+00
  2.43015981e+00  2.43180504e+00  2.43745481e+00  2.44197980e+00
  2.44770605e+00  2.45198134e+00  2.45797184e+00  2.46949771e+00
  2.47554056e+00  2.47958614e+00  2.48577072e+00  2.49189255e+00
  2.50633312e+00  2.51179321e+00  2.51500903e+00  2.52818189e+00
  2.53254505e+00  2.53553058e+00  2.53926549e+00  2.54459417e+00
  2.54864069e+00  2.55351656e+00  2.55847841e+00  2.56511110e+00
  2.56689766e+00  2.56882763e+00  2.57781930e+00  2.57982417e+00
  2.58680120e+00  2.58766872e+00  2.59189464e+00  2.60088654e+00
  2.61104717e+00  2.61491428e+00  2.61869758e+00  2.62925508e+00
  2.63321392e+00  2.63363918e+00  2.64137304e+00  2.64653964e+00
  2.65432477e+00  2.65856265e+00  2.66125252e+00  2.66752635e+00
  2.67551225e+00  2.67779541e+00  2.68199281e+00  2.68733339e+00
  2.69490410e+00  2.69765727e+00  2.70100212e+00  2.70288422e+00
  2.70452536e+00  2.71275435e+00  2.71835100e+00  2.71914262e+00
  2.72082298e+00  2.72632875e+00  2.73041506e+00  2.73674036e+00
  2.73989560e+00  2.74522236e+00  2.74966726e+00  2.75233648e+00
  2.75920599e+00  2.76223785e+00  2.76425692e+00  2.77704774e+00
  2.78133988e+00  2.78469375e+00  2.78782402e+00  2.79208532e+00
  2.79444908e+00  2.79551916e+00  2.80494235e+00  2.80892875e+00
  2.81505178e+00  2.82300031e+00  2.82910494e+00  2.83366186e+00
  2.83621213e+00  2.83975784e+00  2.84119827e+00  2.84506559e+00
  2.85277437e+00  2.85672318e+00  2.85922235e+00  2.86498312e+00
  2.86681166e+00  2.86919826e+00  2.87569729e+00  2.88177355e+00
  2.88549339e+00  2.88664396e+00  2.89274666e+00  2.90236512e+00
  2.90770347e+00  2.91677968e+00  2.92286734e+00  2.92670415e+00
  2.93095326e+00  2.93509899e+00  2.94440179e+00  2.94794053e+00
  2.95121481e+00  2.95773921e+00  2.96287329e+00  2.96767063e+00
  2.97309419e+00  2.97592219e+00  2.98005868e+00  2.98489896e+00
  2.98843458e+00  2.99076352e+00  2.99199813e+00  2.99430824e+00
  2.99883860e+00  3.00128470e+00  3.00835231e+00  3.01340103e+00
  3.01875436e+00  3.02001018e+00  3.02328516e+00  3.02625497e+00
  3.02779078e+00  3.03498463e+00  3.04036028e+00  3.04719490e+00
  3.05205465e+00  3.05918859e+00  3.06196353e+00  3.06755181e+00
  3.06994449e+00  3.07911704e+00  3.08273947e+00  3.08480266e+00
  3.08707878e+00  3.09139377e+00  3.09715078e+00  3.10422850e+00
  3.10631157e+00  3.11269956e+00  3.11331831e+00  3.11677016e+00
  3.11761386e+00  3.12183041e+00  3.13316892e+00  3.13553610e+00
  3.14737206e+00  3.15188083e+00  3.15394379e+00  3.15574086e+00
  3.15923891e+00  3.16488412e+00  3.16806411e+00  3.17464677e+00
  3.17901511e+00  3.18309704e+00  3.18447405e+00  3.18571580e+00
  3.19312870e+00  3.19671385e+00  3.19826716e+00  3.20128007e+00
  3.20500588e+00  3.20689073e+00  3.20932232e+00  3.21350757e+00
  3.21946125e+00  3.22187494e+00  3.22841160e+00  3.23134850e+00
  3.23496354e+00  3.24041683e+00  3.24520319e+00  3.24898111e+00
  3.25333501e+00  3.25801443e+00  3.25860843e+00  3.26547925e+00
  3.27528046e+00  3.28226823e+00  3.28303274e+00  3.28330780e+00
  3.28912175e+00  3.29255715e+00  3.29978650e+00  3.30110268e+00
  3.30582211e+00  3.30842614e+00  3.31573821e+00  3.32113253e+00
  3.32230059e+00  3.32384728e+00  3.32843069e+00  3.33071291e+00
  3.33159977e+00  3.33537259e+00  3.34162227e+00  3.34545622e+00
  3.34870028e+00  3.35260314e+00  3.35367025e+00  3.36065056e+00
  3.36983534e+00  3.37115029e+00  3.37615206e+00  3.38034638e+00
  3.38237003e+00  3.38498456e+00  3.39193222e+00  3.39589065e+00
  3.40187420e+00  3.40509040e+00  3.40963154e+00  3.41126773e+00
  3.41719043e+00  3.42096394e+00  3.42758036e+00  3.43534730e+00
  3.43914990e+00  3.43990660e+00  3.44229447e+00  3.44676997e+00
  3.45144264e+00  3.45544095e+00  3.45780433e+00  3.46372249e+00
  3.46524604e+00  3.46740634e+00  3.46941989e+00  3.47817098e+00
  3.48151913e+00  3.48191466e+00  3.48572738e+00  3.48955941e+00
  3.49779401e+00  3.50108191e+00  3.50723151e+00  3.51321657e+00
  3.51511966e+00  3.52050658e+00  3.52178683e+00  3.53675547e+00
  3.54202285e+00  3.54351620e+00  3.54497853e+00  3.55207501e+00
  3.55597989e+00  3.56061212e+00  3.56521979e+00  3.57642195e+00
  3.57938764e+00  3.58858784e+00  3.59348533e+00  3.59912402e+00
  3.60362493e+00  3.61083362e+00  3.61402923e+00  3.62502042e+00
  3.62898794e+00  3.63215894e+00  3.64145271e+00  3.64326712e+00
  3.65504413e+00  3.65634816e+00  3.66566310e+00  3.67331653e+00
  3.68184046e+00  3.69170546e+00  3.69854098e+00  3.70769326e+00
  3.71541699e+00  3.71816772e+00  3.73966393e+00  3.74133071e+00
  3.75769984e+00  3.75978893e+00  3.76615578e+00  3.76926584e+00
  3.77082974e+00  3.77564172e+00  3.77853005e+00  3.79324697e+00
  3.81167831e+00  3.82630300e+00  3.83051423e+00  3.83444469e+00
  3.84792089e+00  3.85327029e+00  3.86166719e+00  3.86922322e+00
  3.87524005e+00  3.87660155e+00  3.89946393e+00  3.91510546e+00
  3.91866040e+00  3.93113335e+00  3.93483965e+00  3.94472354e+00
  3.96085853e+00  3.96751515e+00  3.96761514e+00  3.98926101e+00
  3.99751820e+00  4.00065605e+00  4.01030336e+00  4.01371430e+00
  4.02192385e+00  4.02379052e+00  4.02993906e+00  4.04087484e+00
  4.04594973e+00  4.05466895e+00  4.06514317e+00  4.06753462e+00
  4.07101687e+00  4.07404305e+00  4.08419606e+00  4.08537881e+00
  4.09466895e+00  4.10280050e+00  4.10785410e+00  4.11365863e+00
  4.11746874e+00  4.12841718e+00  4.13296173e+00  4.14015827e+00
  4.14682360e+00  4.15109467e+00  4.15449285e+00  4.16190638e+00
  4.16522538e+00  4.17538023e+00  4.18208151e+00  4.19110066e+00
  4.19323764e+00  4.19553477e+00  4.20399386e+00  4.20554667e+00
  4.21314144e+00  4.22744475e+00  4.23268880e+00  4.23723046e+00
  4.24432987e+00  4.25769158e+00  4.25982463e+00  4.26915778e+00
  4.27567538e+00  4.27812925e+00  4.28233374e+00  4.29810407e+00
  4.30772034e+00  4.31101523e+00  4.31578205e+00  4.34176018e+00
  4.34333471e+00  4.34817961e+00  4.36791020e+00  4.37190477e+00
  4.38226270e+00  4.38434068e+00  4.39158439e+00  4.41063760e+00
  4.41312774e+00  4.41925653e+00  4.42183383e+00  4.43813763e+00
  4.44503042e+00  4.45077595e+00  4.46575199e+00  4.46638988e+00
  4.48269197e+00  4.48836669e+00  4.51021457e+00  4.51546877e+00
  4.51606865e+00  4.53314896e+00  4.53919911e+00  4.55118585e+00
  4.56415038e+00  4.56638885e+00  4.58229864e+00  4.59518442e+00
  4.61514305e+00  4.61944158e+00  4.63025483e+00  4.64386826e+00
  4.65148233e+00  4.66382492e+00  4.66942337e+00  4.68654803e+00
  4.69079186e+00  4.70572360e+00  4.71401251e+00  4.72808409e+00
  4.72918255e+00  4.74914859e+00  4.76585024e+00  4.78282887e+00
  4.78702758e+00  4.79436139e+00  4.81948510e+00  4.83462005e+00
  4.85152758e+00  4.85605416e+00  4.86822126e+00  4.87844243e+00
  4.88005873e+00  4.91083072e+00  4.92061967e+00  4.92940939e+00
  4.93647759e+00  4.95775969e+00  4.96821956e+00  4.97964853e+00
  4.98982206e+00  4.99448510e+00  5.00536021e+00  5.03144506e+00
  5.03783207e+00  5.05773349e+00  5.06388312e+00  5.07404712e+00
  5.09910633e+00  5.10297917e+00  5.12631651e+00  5.13995172e+00
  5.14272827e+00  5.14417703e+00  5.14987157e+00  5.16510917e+00
  5.18190046e+00  5.18203188e+00  5.18788112e+00  5.19514473e+00
  5.20973724e+00  5.22255331e+00  5.22467960e+00  5.23315436e+00
  5.25273840e+00  5.25403448e+00  5.25733202e+00  5.26954735e+00
  5.29102537e+00  5.29798391e+00  5.30760151e+00  5.32942149e+00
  5.35389408e+00  5.36419069e+00  5.37339840e+00  5.38238196e+00
  5.39519579e+00  5.41387352e+00  5.43779417e+00  5.45328514e+00
  5.47287256e+00  5.48079096e+00  5.49392381e+00  5.49856614e+00
  5.50543071e+00  5.52093937e+00  5.55502688e+00  5.59169451e+00
  5.60121700e+00  5.62434069e+00  5.62933420e+00  5.63876170e+00
  5.66905203e+00  5.67298439e+00  5.68222008e+00  5.69450784e+00
  5.70147565e+00  5.73930103e+00  5.76913675e+00  5.80100312e+00
  5.82613779e+00  5.85450705e+00  5.87209884e+00  5.87290418e+00
  5.94956859e+00  5.99798548e+00  6.02212451e+00  6.03709526e+00
  6.06076111e+00  6.14883793e+00  6.15172873e+00  6.15437355e+00
  6.17111323e+00  6.17952306e+00  6.22361904e+00  6.30526626e+00
  6.32151806e+00  6.39110454e+00  6.41496758e+00  6.42216332e+00
  6.42618446e+00  6.43597712e+00  6.44765823e+00  6.52390292e+00
  6.61797868e+00  6.63424198e+00  6.70021189e+00  6.72930969e+00
  6.75486575e+00  6.81823217e+00  6.83033694e+00  6.84767984e+00
  6.85134222e+00  6.92376277e+00  6.95020771e+00  7.10718405e+00
  7.10840183e+00  7.13819241e+00  7.16748528e+00  7.18970873e+00
  7.19399662e+00  7.39528182e+00  7.77739142e+00  8.89787201e+00
  9.51112856e+00  9.52851375e+00  2.03310772e+01  2.22660185e+01
  2.23303783e+01  2.24887099e+01  2.25051727e+01  2.25245430e+01
  2.26553782e+01  2.26758082e+01  2.26863011e+01  2.26982466e+01
  2.27233194e+01  2.27442556e+01  2.27545752e+01  2.27878154e+01
  2.28113679e+01  2.28152815e+01  2.29014736e+01  2.29193076e+01
  2.29890429e+01  2.30889687e+01  2.31828257e+01  2.31975854e+01
  2.32780961e+01  2.33264162e+01  2.35252308e+01  2.35759025e+01
  2.35993952e+01  2.37463892e+01  2.38673109e+01  3.22201649e+01
  3.30034168e+01  3.30805253e+01  4.39319178e+01  4.39976792e+01
  4.41122859e+01  4.41189624e+01]
nelec by numeric integration = 289.999939470197
    CPU time for vxc    306.69 sec, wall time     21.06 sec
    CPU time for df vj and vk   1894.18 sec, wall time    144.39 sec
E1 = -14167.925352405517  Ecoul = 5992.61319302542  Exc = -328.5145959982841
cycle= 2 E= -4513.70047365714  delta_E= 1.82e-09  |g|= 9.62e-05  |ddm|= 0.000161
    CPU time for cycle= 2   2215.86 sec, wall time    167.96 sec
  HOMO = -0.215147669739592  LUMO = -0.127039614365324
  mo_energy =
[-4.83275121e+02 -8.90846584e+01 -6.26747601e+01 -5.64484345e+01
 -5.64450154e+01 -5.64448419e+01 -1.92703390e+01 -1.92078272e+01
 -1.91997158e+01 -1.91973202e+01 -1.44571864e+01 -1.44562136e+01
 -1.43926559e+01 -1.03765551e+01 -1.03487109e+01 -1.03470065e+01
 -1.03223162e+01 -1.03212628e+01 -1.03106911e+01 -1.03064077e+01
 -1.03000187e+01 -1.02978128e+01 -1.02933908e+01 -1.02832457e+01
 -1.02803009e+01 -1.02781127e+01 -1.02775806e+01 -1.02770260e+01
 -1.02745435e+01 -1.02689734e+01 -1.02668446e+01 -1.02663677e+01
 -1.02654779e+01 -1.02644075e+01 -1.02628715e+01 -1.02608688e+01
 -1.02591075e+01 -1.02562773e+01 -1.02558765e+01 -1.02473568e+01
 -1.02458864e+01 -8.79369527e+00 -8.06225987e+00 -6.60462646e+00
 -6.59376669e+00 -6.59320467e+00 -5.99810305e+00 -5.99475019e+00
 -5.99242440e+00 -2.69035426e+00 -2.68721903e+00 -2.68678520e+00
 -2.67788924e+00 -2.67788470e+00 -1.14862463e+00 -1.08928441e+00
 -1.08422648e+00 -1.05692519e+00 -1.01575604e+00 -1.00549178e+00
 -9.46845386e-01 -9.35492249e-01 -9.18878771e-01 -9.12667284e-01
 -8.73459681e-01 -8.71138199e-01 -8.53745378e-01 -8.38492687e-01
 -8.06774781e-01 -8.01780942e-01 -7.97617620e-01 -7.90797625e-01
 -7.84403669e-01 -7.80872411e-01 -7.45072028e-01 -7.24894065e-01
 -7.14013896e-01 -6.97005752e-01 -6.73978669e-01 -6.65972441e-01
 -6.57486440e-01 -6.55125954e-01 -6.38221128e-01 -6.23623494e-01
 -6.11369001e-01 -5.99546942e-01 -5.93345911e-01 -5.76688920e-01
 -5.68764920e-01 -5.55750992e-01 -5.48094848e-01 -5.35989383e-01
 -5.16659650e-01 -5.15552637e-01 -5.14091836e-01 -5.07828372e-01
 -5.04332245e-01 -5.00323428e-01 -4.98013677e-01 -4.94666500e-01
 -4.88948533e-01 -4.85332195e-01 -4.81960187e-01 -4.78583015e-01
 -4.66337493e-01 -4.62545161e-01 -4.59223923e-01 -4.54615282e-01
 -4.52845554e-01 -4.47900323e-01 -4.44066922e-01 -4.40206340e-01
 -4.37983866e-01 -4.32101646e-01 -4.29678396e-01 -4.23717147e-01
 -4.20413749e-01 -4.18760780e-01 -4.16007811e-01 -4.10268155e-01
 -4.00168975e-01 -3.95886234e-01 -3.92688757e-01 -3.89199414e-01
 -3.85700119e-01 -3.82722207e-01 -3.76004982e-01 -3.72059763e-01
 -3.67449972e-01 -3.51989360e-01 -3.50465742e-01 -3.41779516e-01
 -3.36525147e-01 -3.17085887e-01 -3.11903251e-01 -3.06792340e-01
 -3.04992120e-01 -2.99901981e-01 -2.95571403e-01 -2.93843698e-01
 -2.92057249e-01 -2.78438693e-01 -2.76736419e-01 -2.51420990e-01
 -2.15147670e-01 -1.27039614e-01 -1.02618113e-01 -6.13938469e-02
 -3.75547531e-02 -3.68482525e-02 -3.28297640e-02 -1.34788822e-02
 -7.83267006e-03 -4.62674530e-03  8.41767940e-03  1.49229695e-02
  2.06190684e-02  2.95768347e-02  3.61662366e-02  4.01926804e-02
  4.30253271e-02  4.71219779e-02  6.55213970e-02  7.00226154e-02
  7.38481237e-02  7.73480356e-02  7.80774624e-02  8.35607658e-02
  8.80845741e-02  9.22619846e-02  9.42227285e-02  9.58389617e-02
  9.76783302e-02  1.01378997e-01  1.04746278e-01  1.06829737e-01
  1.10985648e-01  1.15266348e-01  1.18700719e-01  1.22361737e-01
  1.24992960e-01  1.29906039e-01  1.34495688e-01  1.36807707e-01
  1.38495890e-01  1.49159138e-01  1.52004474e-01  1.53832805e-01
  1.57378504e-01  1.60641547e-01  1.62758244e-01  1.67857559e-01
  1.73235869e-01  1.76447844e-01  1.78446966e-01  1.82026508e-01
  1.82584457e-01  1.87374795e-01  1.90067993e-01  1.94980325e-01
  1.95690819e-01  1.95894952e-01  1.98058498e-01  2.00185304e-01
  2.01313599e-01  2.07750836e-01  2.08488359e-01  2.11222442e-01
  2.13729756e-01  2.16494460e-01  2.19633260e-01  2.24807411e-01
  2.26676184e-01  2.28791255e-01  2.30883167e-01  2.33159553e-01
  2.37588448e-01  2.40541515e-01  2.42018646e-01  2.43807017e-01
  2.44471205e-01  2.52595567e-01  2.53962151e-01  2.58674295e-01
  2.59466131e-01  2.63354310e-01  2.67207954e-01  2.67704474e-01
  2.70510229e-01  2.72199612e-01  2.76481886e-01  2.81173312e-01
  2.82761741e-01  2.83596507e-01  2.85932911e-01  2.91882260e-01
  2.93690871e-01  2.94595089e-01  2.98522434e-01  3.02102807e-01
  3.02317102e-01  3.07411356e-01  3.08687590e-01  3.14114817e-01
  3.17706389e-01  3.20269934e-01  3.22793144e-01  3.24448974e-01
  3.25229158e-01  3.28274311e-01  3.32175544e-01  3.33570933e-01
  3.37696628e-01  3.39603628e-01  3.42200707e-01  3.44973627e-01
  3.46770146e-01  3.49242369e-01  3.52589016e-01  3.55228984e-01
  3.59239189e-01  3.65840255e-01  3.67716368e-01  3.71540510e-01
  3.74304215e-01  3.75448551e-01  3.79327897e-01  3.80726267e-01
  3.84683762e-01  3.86932751e-01  3.89434866e-01  3.93793872e-01
  3.96906110e-01  3.98222261e-01  3.99948605e-01  4.01750322e-01
  4.06426375e-01  4.10735349e-01  4.15223757e-01  4.18399292e-01
  4.19848102e-01  4.22936289e-01  4.24746310e-01  4.27377909e-01
  4.31508587e-01  4.36643400e-01  4.38324142e-01  4.41083335e-01
  4.44354615e-01  4.47635509e-01  4.48968263e-01  4.52953730e-01
  4.54421974e-01  4.56554446e-01  4.62752078e-01  4.66219389e-01
  4.72275114e-01  4.75694778e-01  4.79882766e-01  4.81037750e-01
  4.81450045e-01  4.84672823e-01  4.85046382e-01  4.87916849e-01
  4.90843118e-01  4.96226023e-01  4.97647040e-01  5.03631386e-01
  5.07347603e-01  5.07645437e-01  5.11525947e-01  5.17023275e-01
  5.22146955e-01  5.22731995e-01  5.26281489e-01  5.26507733e-01
  5.30464345e-01  5.32029827e-01  5.44319407e-01  5.47681226e-01
  5.50761490e-01  5.53525923e-01  5.61426863e-01  5.65214673e-01
  5.66201696e-01  5.68077317e-01  5.73394453e-01  5.75568232e-01
  5.80040090e-01  5.84337298e-01  5.85181514e-01  5.88406151e-01
  5.91727800e-01  5.98130821e-01  5.99821844e-01  6.03363315e-01
  6.09655920e-01  6.12140411e-01  6.16682905e-01  6.17808740e-01
  6.22048835e-01  6.25882530e-01  6.30100317e-01  6.38121016e-01
  6.39575920e-01  6.41207766e-01  6.43302158e-01  6.43963556e-01
  6.49146692e-01  6.50984385e-01  6.52230115e-01  6.54802068e-01
  6.58018978e-01  6.62487100e-01  6.65917988e-01  6.68510601e-01
  6.72728743e-01  6.76575089e-01  6.78294519e-01  6.80561492e-01
  6.82026225e-01  6.85910291e-01  6.90646689e-01  6.93120826e-01
  6.96277434e-01  6.98332119e-01  7.01509267e-01  7.04658615e-01
  7.09115951e-01  7.12687280e-01  7.14817896e-01  7.20927981e-01
  7.21524782e-01  7.29342234e-01  7.30973031e-01  7.32672681e-01
  7.36712963e-01  7.38754362e-01  7.40092223e-01  7.47608333e-01
  7.53789259e-01  7.57264733e-01  7.59813949e-01  7.63266430e-01
  7.71011898e-01  7.75308662e-01  7.79622719e-01  7.84129960e-01
  7.88315164e-01  7.91957821e-01  7.96198185e-01  7.97395255e-01
  8.00742281e-01  8.02781938e-01  8.12336133e-01  8.16313896e-01
  8.21499852e-01  8.22232692e-01  8.24107089e-01  8.27968164e-01
  8.31313867e-01  8.38190109e-01  8.41910562e-01  8.46255331e-01
  8.47299150e-01  8.55695935e-01  8.60335847e-01  8.61494277e-01
  8.68433035e-01  8.74815245e-01  8.78258316e-01  8.85393215e-01
  8.88291673e-01  8.93033606e-01  8.97514099e-01  9.02679391e-01
  9.03558722e-01  9.08534499e-01  9.11593545e-01  9.21543087e-01
  9.23858501e-01  9.25747511e-01  9.34713001e-01  9.41309785e-01
  9.42952214e-01  9.45840630e-01  9.49705917e-01  9.51219108e-01
  9.60936244e-01  9.66040001e-01  9.73333657e-01  9.77096128e-01
  9.80759874e-01  9.83318840e-01  9.87160253e-01  9.92109405e-01
  9.97376261e-01  1.00103468e+00  1.00509702e+00  1.01349841e+00
  1.01625848e+00  1.01888075e+00  1.01959371e+00  1.02644687e+00
  1.03244334e+00  1.03433270e+00  1.03639889e+00  1.04264707e+00
  1.04337455e+00  1.05014322e+00  1.05677939e+00  1.05769847e+00
  1.06243142e+00  1.06645379e+00  1.07167572e+00  1.07490763e+00
  1.08329044e+00  1.09210571e+00  1.09594702e+00  1.09787247e+00
  1.10353261e+00  1.10998270e+00  1.11982556e+00  1.12629199e+00
  1.12991327e+00  1.13431207e+00  1.13706754e+00  1.14209870e+00
  1.14398862e+00  1.15300284e+00  1.15692920e+00  1.17015291e+00
  1.17453336e+00  1.17919289e+00  1.18774629e+00  1.18938593e+00
  1.19131117e+00  1.19711016e+00  1.20492082e+00  1.21458891e+00
  1.21962139e+00  1.22206332e+00  1.22916341e+00  1.23195489e+00
  1.23554575e+00  1.23864986e+00  1.24452482e+00  1.25044778e+00
  1.25784656e+00  1.26470698e+00  1.26505329e+00  1.26905976e+00
  1.27378341e+00  1.27493195e+00  1.28243159e+00  1.28912340e+00
  1.29137221e+00  1.29400812e+00  1.29894043e+00  1.30486399e+00
  1.30648410e+00  1.31036162e+00  1.32304448e+00  1.32865754e+00
  1.33178669e+00  1.33450102e+00  1.33997595e+00  1.34841060e+00
  1.35394458e+00  1.35495268e+00  1.36104201e+00  1.36727637e+00
  1.36851913e+00  1.37106860e+00  1.37864430e+00  1.38020417e+00
  1.38505940e+00  1.38672138e+00  1.38880303e+00  1.39669147e+00
  1.41246663e+00  1.41507881e+00  1.42588237e+00  1.42795759e+00
  1.43663378e+00  1.43921828e+00  1.44382498e+00  1.44697353e+00
  1.44916409e+00  1.45249696e+00  1.45662483e+00  1.45857553e+00
  1.46147114e+00  1.46529575e+00  1.46760525e+00  1.47512572e+00
  1.48102157e+00  1.48346931e+00  1.48824524e+00  1.48934580e+00
  1.49059886e+00  1.49904023e+00  1.50593801e+00  1.50826725e+00
  1.50923908e+00  1.51416101e+00  1.51674572e+00  1.51997330e+00
  1.52574456e+00  1.52866753e+00  1.53190858e+00  1.53292968e+00
  1.53801142e+00  1.54081768e+00  1.54366184e+00  1.54503398e+00
  1.54939576e+00  1.55422684e+00  1.55930463e+00  1.56104165e+00
  1.56489217e+00  1.56792570e+00  1.57659512e+00  1.58213879e+00
  1.58552094e+00  1.58712743e+00  1.59053642e+00  1.59510900e+00
  1.59547196e+00  1.60198430e+00  1.60519647e+00  1.60641416e+00
  1.60987513e+00  1.61932491e+00  1.62498048e+00  1.62787213e+00
  1.63142635e+00  1.63529023e+00  1.63788476e+00  1.64595622e+00
  1.64711458e+00  1.66113283e+00  1.66298746e+00  1.67053974e+00
  1.67279191e+00  1.67868411e+00  1.68631294e+00  1.69369746e+00
  1.69753295e+00  1.70159443e+00  1.70340017e+00  1.70566052e+00
  1.70688220e+00  1.71286422e+00  1.71510636e+00  1.71815814e+00
  1.71921680e+00  1.72741151e+00  1.73178710e+00  1.73310125e+00
  1.73818318e+00  1.74487937e+00  1.74979274e+00  1.75203388e+00
  1.75880287e+00  1.76907030e+00  1.77650378e+00  1.77877834e+00
  1.78124457e+00  1.79308710e+00  1.79626223e+00  1.80269519e+00
  1.80401792e+00  1.80993093e+00  1.81549963e+00  1.82516116e+00
  1.83005343e+00  1.83805007e+00  1.84652094e+00  1.85247062e+00
  1.85435602e+00  1.85974423e+00  1.86282717e+00  1.86896019e+00
  1.87310308e+00  1.87791143e+00  1.88129894e+00  1.88248575e+00
  1.88577942e+00  1.88816536e+00  1.89518903e+00  1.89811804e+00
  1.90398713e+00  1.90818266e+00  1.91524589e+00  1.91894680e+00
  1.92572185e+00  1.92972681e+00  1.93466509e+00  1.93874639e+00
  1.94548266e+00  1.94980723e+00  1.96006356e+00  1.96578599e+00
  1.96858940e+00  1.97260944e+00  1.97931426e+00  1.98690483e+00
  1.99397399e+00  1.99928297e+00  2.00528131e+00  2.00688774e+00
  2.01926166e+00  2.02470372e+00  2.02658373e+00  2.03113539e+00
  2.03703466e+00  2.04859958e+00  2.05355420e+00  2.05834615e+00
  2.06017898e+00  2.06398553e+00  2.07003245e+00  2.07607534e+00
  2.08171898e+00  2.08594307e+00  2.09295539e+00  2.09459999e+00
  2.10234497e+00  2.10735424e+00  2.11343940e+00  2.13235463e+00
  2.14108413e+00  2.14248123e+00  2.14923274e+00  2.15281436e+00
  2.15362222e+00  2.15937842e+00  2.16092489e+00  2.16511120e+00
  2.18395538e+00  2.18490359e+00  2.19333511e+00  2.19972446e+00
  2.20114282e+00  2.20783770e+00  2.20946671e+00  2.21649761e+00
  2.21921692e+00  2.22313985e+00  2.23621265e+00  2.24404233e+00
  2.24819283e+00  2.25574109e+00  2.25728181e+00  2.27426996e+00
  2.27592391e+00  2.27992441e+00  2.29627259e+00  2.29795987e+00
  2.30198286e+00  2.30711705e+00  2.30859372e+00  2.31569661e+00
  2.31892900e+00  2.32315957e+00  2.32837401e+00  2.33715754e+00
  2.34213737e+00  2.34812708e+00  2.35188875e+00  2.36325585e+00
  2.37646623e+00  2.38564762e+00  2.39607025e+00  2.39797425e+00
  2.40407416e+00  2.40853385e+00  2.41562232e+00  2.42808527e+00
  2.43016051e+00  2.43180530e+00  2.43745519e+00  2.44198087e+00
  2.44770571e+00  2.45198116e+00  2.45797188e+00  2.46949882e+00
  2.47554115e+00  2.47958660e+00  2.48577126e+00  2.49189292e+00
  2.50633222e+00  2.51179379e+00  2.51500936e+00  2.52818226e+00
  2.53254526e+00  2.53553124e+00  2.53926551e+00  2.54459516e+00
  2.54864109e+00  2.55351699e+00  2.55847904e+00  2.56511174e+00
  2.56689751e+00  2.56882784e+00  2.57781910e+00  2.57982448e+00
  2.58680136e+00  2.58766942e+00  2.59189604e+00  2.60088775e+00
  2.61104731e+00  2.61491488e+00  2.61869821e+00  2.62925539e+00
  2.63321425e+00  2.63363939e+00  2.64137276e+00  2.64654010e+00
  2.65432471e+00  2.65856370e+00  2.66125341e+00  2.66752739e+00
  2.67551288e+00  2.67779619e+00  2.68199324e+00  2.68733423e+00
  2.69490419e+00  2.69765719e+00  2.70100294e+00  2.70288503e+00
  2.70452570e+00  2.71275432e+00  2.71835117e+00  2.71914338e+00
  2.72082333e+00  2.72632912e+00  2.73041573e+00  2.73674048e+00
  2.73989572e+00  2.74522318e+00  2.74966701e+00  2.75233674e+00
  2.75920677e+00  2.76223820e+00  2.76425696e+00  2.77704874e+00
  2.78133981e+00  2.78469433e+00  2.78782502e+00  2.79208594e+00
  2.79444961e+00  2.79551984e+00  2.80494293e+00  2.80892889e+00
  2.81505188e+00  2.82300043e+00  2.82910546e+00  2.83366235e+00
  2.83621269e+00  2.83975721e+00  2.84119787e+00  2.84506593e+00
  2.85277495e+00  2.85672357e+00  2.85922303e+00  2.86498384e+00
  2.86681230e+00  2.86919854e+00  2.87569771e+00  2.88177355e+00
  2.88549384e+00  2.88664542e+00  2.89274732e+00  2.90236573e+00
  2.90770333e+00  2.91678038e+00  2.92286825e+00  2.92670557e+00
  2.93095307e+00  2.93510031e+00  2.94440261e+00  2.94794124e+00
  2.95121553e+00  2.95773964e+00  2.96287352e+00  2.96767099e+00
  2.97309448e+00  2.97592262e+00  2.98005966e+00  2.98489971e+00
  2.98843601e+00  2.99076480e+00  2.99199850e+00  2.99430904e+00
  2.99883871e+00  3.00128554e+00  3.00835325e+00  3.01340101e+00
  3.01875474e+00  3.02001006e+00  3.02328557e+00  3.02625586e+00
  3.02779075e+00  3.03498483e+00  3.04036046e+00  3.04719549e+00
  3.05205446e+00  3.05918946e+00  3.06196485e+00  3.06755256e+00
  3.06994463e+00  3.07911751e+00  3.08273941e+00  3.08480336e+00
  3.08707892e+00  3.09139494e+00  3.09715131e+00  3.10422826e+00
  3.10631182e+00  3.11270024e+00  3.11331875e+00  3.11677013e+00
  3.11761459e+00  3.12183055e+00  3.13316939e+00  3.13553661e+00
  3.14737288e+00  3.15188138e+00  3.15394428e+00  3.15574221e+00
  3.15924035e+00  3.16488447e+00  3.16806541e+00  3.17464746e+00
  3.17901497e+00  3.18309739e+00  3.18447544e+00  3.18571636e+00
  3.19312891e+00  3.19671457e+00  3.19826777e+00  3.20128082e+00
  3.20500530e+00  3.20689192e+00  3.20932260e+00  3.21350800e+00
  3.21946203e+00  3.22187523e+00  3.22841236e+00  3.23134874e+00
  3.23496392e+00  3.24041660e+00  3.24520345e+00  3.24898165e+00
  3.25333453e+00  3.25801468e+00  3.25860829e+00  3.26548016e+00
  3.27528108e+00  3.28226825e+00  3.28303248e+00  3.28330834e+00
  3.28912213e+00  3.29255765e+00  3.29978698e+00  3.30110339e+00
  3.30582301e+00  3.30842642e+00  3.31573927e+00  3.32113401e+00
  3.32230074e+00  3.32384723e+00  3.32843068e+00  3.33071320e+00
  3.33160024e+00  3.33537297e+00  3.34162265e+00  3.34545687e+00
  3.34870081e+00  3.35260383e+00  3.35367065e+00  3.36065097e+00
  3.36983610e+00  3.37114996e+00  3.37615139e+00  3.38034677e+00
  3.38237083e+00  3.38498466e+00  3.39193294e+00  3.39589109e+00
  3.40187427e+00  3.40509050e+00  3.40963211e+00  3.41126825e+00
  3.41719137e+00  3.42096441e+00  3.42758071e+00  3.43534737e+00
  3.43915037e+00  3.43990754e+00  3.44229427e+00  3.44677064e+00
  3.45144192e+00  3.45544224e+00  3.45780461e+00  3.46372238e+00
  3.46524716e+00  3.46740724e+00  3.46941990e+00  3.47817114e+00
  3.48151918e+00  3.48191475e+00  3.48572773e+00  3.48955941e+00
  3.49779490e+00  3.50108237e+00  3.50723203e+00  3.51321805e+00
  3.51512003e+00  3.52050759e+00  3.52178694e+00  3.53675572e+00
  3.54202370e+00  3.54351731e+00  3.54497906e+00  3.55207471e+00
  3.55598056e+00  3.56061270e+00  3.56521994e+00  3.57642308e+00
  3.57938743e+00  3.58858895e+00  3.59348497e+00  3.59912366e+00
  3.60362586e+00  3.61083441e+00  3.61402929e+00  3.62502034e+00
  3.62898863e+00  3.63215986e+00  3.64145341e+00  3.64326781e+00
  3.65504425e+00  3.65634824e+00  3.66566387e+00  3.67331760e+00
  3.68184112e+00  3.69170520e+00  3.69854132e+00  3.70769407e+00
  3.71541747e+00  3.71816852e+00  3.73966555e+00  3.74133181e+00
  3.75770083e+00  3.75978941e+00  3.76615624e+00  3.76926652e+00
  3.77082992e+00  3.77564227e+00  3.77853080e+00  3.79324739e+00
  3.81167873e+00  3.82630329e+00  3.83051544e+00  3.83444622e+00
  3.84792132e+00  3.85327011e+00  3.86166837e+00  3.86922382e+00
  3.87523967e+00  3.87660164e+00  3.89946519e+00  3.91510527e+00
  3.91866100e+00  3.93113448e+00  3.93484060e+00  3.94472381e+00
  3.96085872e+00  3.96751508e+00  3.96761546e+00  3.98926060e+00
  3.99751888e+00  4.00065625e+00  4.01030406e+00  4.01371479e+00
  4.02192314e+00  4.02379062e+00  4.02993914e+00  4.04087580e+00
  4.04595103e+00  4.05466992e+00  4.06514390e+00  4.06753594e+00
  4.07101702e+00  4.07404323e+00  4.08419559e+00  4.08537996e+00
  4.09466960e+00  4.10280113e+00  4.10785470e+00  4.11365910e+00
  4.11747036e+00  4.12841801e+00  4.13296217e+00  4.14015920e+00
  4.14682438e+00  4.15109467e+00  4.15449322e+00  4.16190595e+00
[...]
  1.53801143e+00  1.54081782e+00  1.54366186e+00  1.54503392e+00
  1.54939569e+00  1.55422682e+00  1.55930456e+00  1.56104170e+00
  1.56489206e+00  1.56792575e+00  1.57659506e+00  1.58213879e+00
  1.58552090e+00  1.58712746e+00  1.59053647e+00  1.59510899e+00
  1.59547198e+00  1.60198435e+00  1.60519638e+00  1.60641412e+00
  1.60987507e+00  1.61932492e+00  1.62498040e+00  1.62787206e+00
  1.63142638e+00  1.63529020e+00  1.63788472e+00  1.64595621e+00
  1.64711456e+00  1.66113281e+00  1.66298745e+00  1.67053975e+00
  1.67279189e+00  1.67868412e+00  1.68631295e+00  1.69369740e+00
  1.69753298e+00  1.70159439e+00  1.70340024e+00  1.70566060e+00
  1.70688218e+00  1.71286417e+00  1.71510633e+00  1.71815815e+00
  1.71921673e+00  1.72741151e+00  1.73178711e+00  1.73310120e+00
  1.73818314e+00  1.74487929e+00  1.74979270e+00  1.75203387e+00
  1.75880292e+00  1.76907027e+00  1.77650370e+00  1.77877831e+00
  1.78124461e+00  1.79308705e+00  1.79626222e+00  1.80269517e+00
  1.80401797e+00  1.80993089e+00  1.81549959e+00  1.82516114e+00
  1.83005337e+00  1.83805009e+00  1.84652106e+00  1.85247065e+00
  1.85435602e+00  1.85974422e+00  1.86282715e+00  1.86896017e+00
  1.87310317e+00  1.87791141e+00  1.88129888e+00  1.88248582e+00
  1.88577938e+00  1.88816526e+00  1.89518903e+00  1.89811798e+00
  1.90398707e+00  1.90818272e+00  1.91524588e+00  1.91894677e+00
  1.92572182e+00  1.92972673e+00  1.93466517e+00  1.93874642e+00
  1.94548267e+00  1.94980719e+00  1.96006360e+00  1.96578605e+00
  1.96858948e+00  1.97260947e+00  1.97931438e+00  1.98690486e+00
  1.99397425e+00  1.99928296e+00  2.00528117e+00  2.00688775e+00
  2.01926158e+00  2.02470362e+00  2.02658374e+00  2.03113558e+00
  2.03703471e+00  2.04859965e+00  2.05355416e+00  2.05834612e+00
  2.06017893e+00  2.06398555e+00  2.07003249e+00  2.07607530e+00
  2.08171899e+00  2.08594315e+00  2.09295528e+00  2.09459989e+00
  2.10234491e+00  2.10735425e+00  2.11343936e+00  2.13235462e+00
  2.14108408e+00  2.14248126e+00  2.14923273e+00  2.15281445e+00
  2.15362226e+00  2.15937842e+00  2.16092495e+00  2.16511143e+00
  2.18395533e+00  2.18490351e+00  2.19333503e+00  2.19972452e+00
  2.20114286e+00  2.20783773e+00  2.20946681e+00  2.21649752e+00
  2.21921689e+00  2.22313979e+00  2.23621256e+00  2.24404225e+00
  2.24819274e+00  2.25574108e+00  2.25728176e+00  2.27426992e+00
  2.27592380e+00  2.27992447e+00  2.29627261e+00  2.29795979e+00
  2.30198286e+00  2.30711725e+00  2.30859381e+00  2.31569674e+00
  2.31892901e+00  2.32315944e+00  2.32837389e+00  2.33715752e+00
  2.34213735e+00  2.34812704e+00  2.35188907e+00  2.36325583e+00
  2.37646620e+00  2.38564764e+00  2.39607009e+00  2.39797427e+00
  2.40407426e+00  2.40853398e+00  2.41562231e+00  2.42808542e+00
  2.43016059e+00  2.43180537e+00  2.43745520e+00  2.44198078e+00
  2.44770567e+00  2.45198111e+00  2.45797186e+00  2.46949874e+00
  2.47554111e+00  2.47958659e+00  2.48577150e+00  2.49189293e+00
  2.50633225e+00  2.51179387e+00  2.51500941e+00  2.52818226e+00
  2.53254531e+00  2.53553125e+00  2.53926551e+00  2.54459518e+00
  2.54864109e+00  2.55351700e+00  2.55847900e+00  2.56511174e+00
  2.56689753e+00  2.56882782e+00  2.57781916e+00  2.57982449e+00
  2.58680143e+00  2.58766943e+00  2.59189599e+00  2.60088768e+00
  2.61104735e+00  2.61491488e+00  2.61869821e+00  2.62925540e+00
  2.63321429e+00  2.63363945e+00  2.64137277e+00  2.64654013e+00
  2.65432474e+00  2.65856364e+00  2.66125342e+00  2.66752757e+00
  2.67551286e+00  2.67779617e+00  2.68199326e+00  2.68733418e+00
  2.69490418e+00  2.69765720e+00  2.70100290e+00  2.70288496e+00
  2.70452568e+00  2.71275437e+00  2.71835136e+00  2.71914341e+00
  2.72082334e+00  2.72632915e+00  2.73041582e+00  2.73674049e+00
  2.73989576e+00  2.74522317e+00  2.74966701e+00  2.75233676e+00
  2.75920673e+00  2.76223823e+00  2.76425698e+00  2.77704875e+00
  2.78133983e+00  2.78469433e+00  2.78782506e+00  2.79208603e+00
  2.79444967e+00  2.79551981e+00  2.80494289e+00  2.80892893e+00
  2.81505189e+00  2.82300045e+00  2.82910550e+00  2.83366238e+00
  2.83621269e+00  2.83975732e+00  2.84119800e+00  2.84506600e+00
  2.85277496e+00  2.85672366e+00  2.85922299e+00  2.86498380e+00
  2.86681231e+00  2.86919852e+00  2.87569768e+00  2.88177361e+00
  2.88549383e+00  2.88664555e+00  2.89274731e+00  2.90236580e+00
  2.90770334e+00  2.91678049e+00  2.92286818e+00  2.92670552e+00
  2.93095308e+00  2.93510024e+00  2.94440266e+00  2.94794137e+00
  2.95121557e+00  2.95773969e+00  2.96287353e+00  2.96767105e+00
  2.97309458e+00  2.97592262e+00  2.98005960e+00  2.98489973e+00
  2.98843597e+00  2.99076480e+00  2.99199855e+00  2.99430905e+00
  2.99883877e+00  3.00128551e+00  3.00835322e+00  3.01340105e+00
  3.01875472e+00  3.02001006e+00  3.02328550e+00  3.02625587e+00
  3.02779077e+00  3.03498485e+00  3.04036046e+00  3.04719548e+00
  3.05205453e+00  3.05918942e+00  3.06196476e+00  3.06755254e+00
  3.06994467e+00  3.07911755e+00  3.08273947e+00  3.08480333e+00
  3.08707893e+00  3.09139490e+00  3.09715129e+00  3.10422829e+00
  3.10631185e+00  3.11270026e+00  3.11331873e+00  3.11677014e+00
  3.11761459e+00  3.12183057e+00  3.13316942e+00  3.13553663e+00
  3.14737287e+00  3.15188144e+00  3.15394436e+00  3.15574220e+00
  3.15924034e+00  3.16488448e+00  3.16806531e+00  3.17464745e+00
  3.17901505e+00  3.18309744e+00  3.18447546e+00  3.18571648e+00
  3.19312897e+00  3.19671454e+00  3.19826777e+00  3.20128082e+00
  3.20500535e+00  3.20689186e+00  3.20932261e+00  3.21350805e+00
  3.21946222e+00  3.22187522e+00  3.22841233e+00  3.23134875e+00
  3.23496393e+00  3.24041660e+00  3.24520353e+00  3.24898161e+00
  3.25333457e+00  3.25801466e+00  3.25860826e+00  3.26548036e+00
  3.27528105e+00  3.28226827e+00  3.28303249e+00  3.28330837e+00
  3.28912212e+00  3.29255758e+00  3.29978697e+00  3.30110341e+00
  3.30582302e+00  3.30842643e+00  3.31573920e+00  3.32113420e+00
  3.32230070e+00  3.32384725e+00  3.32843067e+00  3.33071319e+00
  3.33160019e+00  3.33537292e+00  3.34162265e+00  3.34545686e+00
  3.34870075e+00  3.35260379e+00  3.35367069e+00  3.36065093e+00
  3.36983605e+00  3.37114998e+00  3.37615145e+00  3.38034676e+00
  3.38237077e+00  3.38498467e+00  3.39193289e+00  3.39589107e+00
  3.40187429e+00  3.40509057e+00  3.40963213e+00  3.41126820e+00
  3.41719134e+00  3.42096441e+00  3.42758075e+00  3.43534742e+00
  3.43915035e+00  3.43990758e+00  3.44229428e+00  3.44677060e+00
  3.45144198e+00  3.45544218e+00  3.45780461e+00  3.46372243e+00
  3.46524717e+00  3.46740741e+00  3.46941988e+00  3.47817121e+00
  3.48151921e+00  3.48191479e+00  3.48572773e+00  3.48955946e+00
  3.49779487e+00  3.50108239e+00  3.50723202e+00  3.51321794e+00
  3.51512003e+00  3.52050759e+00  3.52178695e+00  3.53675576e+00
  3.54202366e+00  3.54351728e+00  3.54497909e+00  3.55207476e+00
  3.55598050e+00  3.56061269e+00  3.56521998e+00  3.57642307e+00
  3.57938745e+00  3.58858894e+00  3.59348499e+00  3.59912364e+00
  3.60362584e+00  3.61083437e+00  3.61402927e+00  3.62502036e+00
  3.62898866e+00  3.63215983e+00  3.64145334e+00  3.64326776e+00
  3.65504426e+00  3.65634825e+00  3.66566381e+00  3.67331753e+00
  3.68184108e+00  3.69170521e+00  3.69854126e+00  3.70769403e+00
  3.71541746e+00  3.71816850e+00  3.73966561e+00  3.74133197e+00
  3.75770090e+00  3.75978944e+00  3.76615631e+00  3.76926654e+00
  3.77082997e+00  3.77564232e+00  3.77853080e+00  3.79324739e+00
  3.81167880e+00  3.82630330e+00  3.83051543e+00  3.83444617e+00
  3.84792130e+00  3.85327012e+00  3.86166830e+00  3.86922382e+00
  3.87523968e+00  3.87660171e+00  3.89946511e+00  3.91510532e+00
  3.91866103e+00  3.93113443e+00  3.93484062e+00  3.94472381e+00
  3.96085882e+00  3.96751537e+00  3.96761566e+00  3.98926079e+00
  3.99751887e+00  4.00065626e+00  4.01030408e+00  4.01371474e+00
  4.02192324e+00  4.02379057e+00  4.02993915e+00  4.04087586e+00
  4.04595110e+00  4.05466991e+00  4.06514395e+00  4.06753592e+00
  4.07101709e+00  4.07404330e+00  4.08419561e+00  4.08537990e+00
  4.09466955e+00  4.10280119e+00  4.10785479e+00  4.11365912e+00
  4.11747030e+00  4.12841805e+00  4.13296221e+00  4.14015930e+00
  4.14682440e+00  4.15109466e+00  4.15449325e+00  4.16190605e+00
  4.16522585e+00  4.17538043e+00  4.18208187e+00  4.19110127e+00
  4.19323815e+00  4.19553543e+00  4.20399482e+00  4.20554777e+00
  4.21314268e+00  4.22744633e+00  4.23268980e+00  4.23722999e+00
  4.24433038e+00  4.25769154e+00  4.25982386e+00  4.26915817e+00
  4.27567697e+00  4.27812989e+00  4.28233422e+00  4.29810517e+00
  4.30772135e+00  4.31101602e+00  4.31578233e+00  4.34176112e+00
  4.34333460e+00  4.34818017e+00  4.36790964e+00  4.37190569e+00
  4.38226293e+00  4.38434097e+00  4.39158469e+00  4.41063882e+00
  4.41312841e+00  4.41925659e+00  4.42183377e+00  4.43813855e+00
  4.44503129e+00  4.45077689e+00  4.46575187e+00  4.46638954e+00
  4.48269284e+00  4.48836642e+00  4.51021423e+00  4.51546876e+00
  4.51606868e+00  4.53314919e+00  4.53919938e+00  4.55118584e+00
  4.56415050e+00  4.56638907e+00  4.58229978e+00  4.59518539e+00
  4.61514355e+00  4.61944338e+00  4.63025528e+00  4.64386806e+00
  4.65148176e+00  4.66382521e+00  4.66942448e+00  4.68654762e+00
  4.69079142e+00  4.70572366e+00  4.71401372e+00  4.72808414e+00
  4.72918271e+00  4.74914808e+00  4.76585239e+00  4.78282910e+00
  4.78702751e+00  4.79436225e+00  4.81948604e+00  4.83462064e+00
  4.85152826e+00  4.85605424e+00  4.86822227e+00  4.87844403e+00
  4.88006051e+00  4.91083118e+00  4.92061970e+00  4.92940891e+00
  4.93647852e+00  4.95775983e+00  4.96822061e+00  4.97964912e+00
  4.98982285e+00  4.99448547e+00  5.00536049e+00  5.03144643e+00
  5.03783286e+00  5.05773661e+00  5.06388112e+00  5.07404841e+00
  5.09910636e+00  5.10297932e+00  5.12631784e+00  5.13995057e+00
  5.14272984e+00  5.14417685e+00  5.14987273e+00  5.16510960e+00
  5.18190015e+00  5.18203092e+00  5.18788074e+00  5.19514359e+00
  5.20973758e+00  5.22255314e+00  5.22467833e+00  5.23315370e+00
  5.25273747e+00  5.25403415e+00  5.25733095e+00  5.26954721e+00
  5.29102622e+00  5.29798415e+00  5.30760026e+00  5.32942090e+00
  5.35389573e+00  5.36419456e+00  5.37339940e+00  5.38238317e+00
  5.39519719e+00  5.41387535e+00  5.43779473e+00  5.45328511e+00
  5.47287368e+00  5.48079151e+00  5.49392513e+00  5.49856688e+00
  5.50542957e+00  5.52094053e+00  5.55502753e+00  5.59169409e+00
  5.60121624e+00  5.62434070e+00  5.62933599e+00  5.63876122e+00
  5.66905110e+00  5.67298455e+00  5.68221799e+00  5.69450824e+00
  5.70147598e+00  5.73930491e+00  5.76913793e+00  5.80100161e+00
  5.82614223e+00  5.85450513e+00  5.87210090e+00  5.87290634e+00
  5.94956972e+00  5.99798777e+00  6.02212515e+00  6.03709632e+00
  6.06076074e+00  6.14883612e+00  6.15173007e+00  6.15437484e+00
  6.17111099e+00  6.17952010e+00  6.22361936e+00  6.30526978e+00
  6.32151711e+00  6.39110308e+00  6.41496506e+00  6.42215934e+00
  6.42618042e+00  6.43597437e+00  6.44765936e+00  6.52389890e+00
  6.61797493e+00  6.63423812e+00  6.70021649e+00  6.72931155e+00
  6.75486349e+00  6.81823466e+00  6.83033293e+00  6.84767634e+00
  6.85133800e+00  6.92376095e+00  6.95021055e+00  7.10718063e+00
  7.10839852e+00  7.13818872e+00  7.16748410e+00  7.18970592e+00
  7.19399311e+00  7.39528495e+00  7.77739060e+00  8.89787242e+00
  9.51112890e+00  9.52851416e+00  2.03310775e+01  2.22660191e+01
  2.23303768e+01  2.24887103e+01  2.25051720e+01  2.25245420e+01
  2.26553781e+01  2.26758102e+01  2.26863027e+01  2.26982438e+01
  2.27233204e+01  2.27442561e+01  2.27545751e+01  2.27878137e+01
  2.28113681e+01  2.28152830e+01  2.29014727e+01  2.29193102e+01
  2.29890461e+01  2.30889680e+01  2.31828307e+01  2.31975864e+01
  2.32780997e+01  2.33264166e+01  2.35252335e+01  2.35759057e+01
  2.35993949e+01  2.37463921e+01  2.38673149e+01  3.22201634e+01
  3.30034186e+01  3.30805259e+01  4.39319243e+01  4.39976724e+01
  4.41122785e+01  4.41189553e+01]
nelec by numeric integration = 289.9999394701312
    CPU time for vxc    294.45 sec, wall time     20.52 sec
    CPU time for df vj and vk   1877.88 sec, wall time    145.56 sec
E1 = -14167.925218744434  Ecoul = 5992.613075281583  Exc = -328.5146119177199
Extra cycle  E= -4513.70047365933  delta_E= -1.82e-12  |g|= 2.09e-06  |ddm|= 4.41e-06
    CPU time for scf_cycle  14307.56 sec, wall time   1130.06 sec
    CPU time for SCF  14307.73 sec, wall time   1130.07 sec
converged SCF energy = -4513.70047365933
SCF Done after  1130.0707 seconds
after SCF memory used: 22230.15625 MB
Converting <class 'pyscf.df.df_jk.density_fit.<locals>.DFHF'> to RHF
Converting <class 'pyscf.df.df_jk.density_fit.<locals>.DFHF'> to RHF
a_x = 0.25
beta = 0.6575
alpha = 1.54
hdiag (164285,)
n_occ =  145
n_vir =  1133
max_vir =  343
Q-Gamma tensors building time = 32.8011
after Q matrix memory used: 23151.3828125 MB
-------------------------------------------------------------------
|---------------   In-house Developed Davidson Starts   -----------|
Residual conv = 1e-05
Number of excited states = 20
Initial guess:   sTDA
Preconditioner:  sTDA
A matrix size =  164285 * 164285
sTDA nstate = 28
sTDA A diagonalization: threshold = 0.001 ; in 3 steps  21.659 seconds
sTDA excitation energies:
[1.90473117 2.46797239 2.95915617 3.01435631 3.29153877 3.33624285
 3.48196275 3.53729976 3.60873153 3.67053693 3.7474025  3.81857357
 3.87523061 3.89012214 3.93424604 3.98591577 4.02787924 4.16433766
 4.21191604 4.25617056 4.28747648 4.41413888 4.4575535  4.48802011
 4.52392357 4.58756469 4.6216958  4.67325537]
Intial guess time: 22.3803 seconds
    CPU time for df vj and vk  52649.89 sec, wall time   3640.77 sec
Iteration  0
subspace size:  28
maximum residual norm 0.07291941486185173
sTDA Preconditioning Done after  11 steps;  35.8527 seconds
subgencost 4.5101 12.58 %
mvcost 8.978 25.04 %
GScost 17.74 49.48 %
subcost 0.1007 0.28 %
m,new_m 28 48
    CPU time for df vj and vk  37570.10 sec, wall time   2606.50 sec
new generated guesses: 20
Iteration  1
subspace size:  48
maximum residual norm 0.022575902366821277
sTDA Preconditioning Done after  11 steps;  33.4714 seconds
subgencost 3.1752 9.49 %
mvcost 8.7513 26.15 %
GScost 16.7376 50.01 %
subcost 0.0635 0.19 %
m,new_m 48 68
    CPU time for df vj and vk  37669.93 sec, wall time   2608.44 sec
new generated guesses: 20
Iteration  2
subspace size:  68
maximum residual norm 0.00574247187944928
sTDA Preconditioning Done after  10 steps;  26.2659 seconds
subgencost 2.7014 10.28 %
mvcost 8.0828 30.77 %
GScost 12.042 45.85 %
subcost 0.0665 0.25 %
m,new_m 68 88
    CPU time for df vj and vk  37510.26 sec, wall time   2596.95 sec
new generated guesses: 20
Iteration  3
subspace size:  88
maximum residual norm 0.0012201368604717328
sTDA Preconditioning Done after  9 steps;  26.2161 seconds
subgencost 2.0473 7.81 %
mvcost 8.5545 32.63 %
GScost 12.0979 46.15 %
subcost 0.0519 0.2 %
m,new_m 88 108
    CPU time for df vj and vk  37649.08 sec, wall time   2609.12 sec
new generated guesses: 20
Iteration  4
subspace size:  108
maximum residual norm 0.00030623176676707433
sTDA Preconditioning Done after  8 steps;  23.972 seconds
subgencost 1.733 7.23 %
mvcost 7.9337 33.1 %
GScost 11.1784 46.63 %
subcost 0.0411 0.17 %
m,new_m 108 128
    CPU time for df vj and vk  37613.13 sec, wall time   2616.86 sec
new generated guesses: 20
Iteration  5
subspace size:  128
maximum residual norm 6.58677455469168e-05
sTDA Preconditioning Done after  10 steps;  21.0142 seconds
subgencost 1.9314 9.19 %
mvcost 7.2958 34.72 %
GScost 8.9549 42.61 %
subcost 0.0446 0.21 %
m,new_m 128 143
    CPU time for df vj and vk  28416.18 sec, wall time   1974.43 sec
new generated guesses: 15
Iteration  6
subspace size:  143
maximum residual norm 1.1918377977347865e-05
_________________ sTDA Preconditioner Failed Due to Iteration Limit _________________
sTDA preconditioning failed after  29 steps;  2.265 seconds
current residual norms [0.012369085759329868]
max_norm =  0.012369085759329868
orthonormality of V 5.60547053153238e-15
m,new_m 143 144
    CPU time for df vj and vk   1887.24 sec, wall time    142.10 sec
new generated guesses: 1
Iteration  7
subspace size:  144
maximum residual norm 8.85618418516836e-06
Davidson procedure aborted
Davidson done after  22652.8228 seconds
Total steps = 8
Final subspace shape =  (144, 144)
Preconditioning time: 170.5322 0.75 %
In-house Davidson time: 22653.2831 seconds
Excited State energies (eV) =
[2.21045217 2.77205239 3.18763716 3.24700435 3.51613858 3.61398302
 3.75041996 3.79244023 3.85688417 3.90473118 3.98048072 4.09518386
 4.10275104 4.12558447 4.23041454 4.27266399 4.3158691  4.45297841
 4.50409229 4.53506089]
|---------------   In-house Developed Davidson Done   -----------|
-------------------------------------------------------------------
|---------------   In-house Developed Davidson Starts   -----------|
Residual conv = 1e-05
Number of excited states = 20
Initial guess:   Adiag
Preconditioner:  Adiag
A matrix size =  164285 * 164285
Intial guess time: 0.011 seconds
    CPU time for df vj and vk  52711.32 sec, wall time   3641.88 sec
Iteration  0
subspace size:  28
maximum residual norm 0.09784474770094946
m,new_m 28 48
    CPU time for df vj and vk  37513.83 sec, wall time   2598.17 sec
new generated guesses: 20
Iteration  1
subspace size:  48
maximum residual norm 0.02776007671973614
m,new_m 48 68
    CPU time for df vj and vk  37600.37 sec, wall time   2606.36 sec
new generated guesses: 20
Iteration  2
subspace size:  68
maximum residual norm 0.014569895028686188
m,new_m 68 88
    CPU time for df vj and vk  37554.96 sec, wall time   2603.77 sec
new generated guesses: 20
Iteration  3
subspace size:  88
maximum residual norm 0.006370966964581972
m,new_m 88 108
    CPU time for df vj and vk  37510.68 sec, wall time   2594.24 sec
new generated guesses: 20
Iteration  4
subspace size:  108
maximum residual norm 0.0022289975064070412
m,new_m 108 128
    CPU time for df vj and vk  37556.74 sec, wall time   2605.66 sec
new generated guesses: 20
Iteration  5
subspace size:  128
maximum residual norm 0.0006964515440592146
m,new_m 128 148
    CPU time for df vj and vk  37684.56 sec, wall time   2613.82 sec
new generated guesses: 20
Iteration  6
subspace size:  148
maximum residual norm 0.00016626653007707412
m,new_m 148 165
    CPU time for df vj and vk  32001.72 sec, wall time   2219.23 sec
new generated guesses: 17
Iteration  7
subspace size:  165
maximum residual norm 4.146660826986335e-05
m,new_m 165 168
    CPU time for df vj and vk   5604.67 sec, wall time    397.36 sec
new generated guesses: 3
Iteration  8
subspace size:  168
maximum residual norm 1.21432951164001e-05
m,new_m 168 169
    CPU time for df vj and vk   1873.31 sec, wall time    141.85 sec
new generated guesses: 1
Iteration  9
subspace size:  169
maximum residual norm 7.665870813721612e-06
Davidson procedure aborted
Davidson done after  26507.9638 seconds
Total steps = 10
Final subspace shape =  (169, 169)
Preconditioning time: 1.5659 0.01 %
In-house Davidson time: 26508.269 seconds
Excited State energies (eV) =
[2.21045217 2.77205239 3.18763716 3.24700435 3.51613858 3.61398302
 3.75041996 3.79244023 3.85688417 3.90473118 3.98048072 4.09518386
 4.10275104 4.12558447 4.23041454 4.27266399 4.31586911 4.45297841
 4.50409228 4.53506089]
|---------------   In-house Developed Davidson Done   -----------|
xyzfile = 55_DPP1.xyz
checkfile = True
method = RKS
functional = pbe0
basis_set = def2-tzvp
density_fit = True
grid_level = 3
nstates = 20
pytd = False
TDA = True
TDDFT = False
dynpol = False
dynpol_omega = []
stapol = False
sTDA = False
sTDDFT = False
Truncate_test = False
truncate_virtual = 40.0
TDA_options = [0, 1]
TDDFT_options = [0]
dynpol_options = [0]
stapol_options = [0]
TDA_tolerance = 1e-05
TDDFT_tolerance = 1e-05
dynpol_tolerance = 1e-05
stapol_tolerance = 1e-05
max = 35
TDA_initialTOL = 0.001
TDDFT_initialTOL = 0.001
dynpol_initprecTOL = 0.01
stapol_initprecTOL = 0.01
TDA_precondTOL = 0.01
TDDFT_precondTOL = 0.01
TDA_extrainitial = 8
TDDFT_extrainitial = 8
TDDFT_extrainitial_3n = False
eigensolver_tol = 1e-05
memory = 50000
verbose = 5
beta = []
alpha = []
