curpath /scratch/pbsjobs/job.15971950.hpc
lib.num_threads() =  16
at beginning memory used: 51.859375 MB
mol.max_memory 50000


System: uname_result(system='Linux', node='compt292', release='3.10.0-1127.el7.x86_64', version='#1 SMP Tue Feb 18 16:39:12 EST 2020', machine='x86_64', processor='x86_64')  Threads 16
Python 3.7.0 (default, Aug 23 2018, 14:24:33) 
[GCC 6.3.0]
numpy 1.18.1  scipy 1.4.1
Date: Wed Jul  7 20:35:48 2021
PySCF version 1.7.4
PySCF path  /home/zzz6/.local/lib/python3.7/site-packages/pyscf

[CONFIG] conf_file None
[INPUT] verbose = 5
[INPUT] max_memory = 50000 
[INPUT] num. atoms = 49
[INPUT] num. electrons = 156
[INPUT] charge = 0
[INPUT] spin (= nelec alpha-beta = 2S) = 0
[INPUT] symmetry False subgroup None
[INPUT] Mole.unit = angstrom
[INPUT]  1 O      8.596812826086  -1.341186651948   0.767208986425 AA   16.245621785450  -2.534475454104   1.449814864649 Bohr
[INPUT]  2 C     -4.531485676017   0.840005027898   0.395852991007 AA   -8.563266865061   1.587379445985   0.748053738593 Bohr
[INPUT]  3 C     -5.912817862972   0.142991912416   0.387405131746 AA  -11.173606385453   0.270215552494   0.732089598251 Bohr
[INPUT]  4 C     -5.837786321533  -1.307369641498   0.859703945960 AA  -11.031817321429  -2.470570566001   1.624605006073 Bohr
[INPUT]  5 C     -3.434359710528  -0.084393807286  -0.184953677175 AA   -6.489999266139  -0.159481182380  -0.349511795593 Bohr
[INPUT]  6 C     -4.960654586988  -2.100545426181  -0.107838319794 AA   -9.374278567975  -3.969455567690  -0.203784890145 Bohr
[INPUT]  7 C     -3.660430676832  -1.408002812848  -0.459081878837 AA   -6.917211477169  -2.660739698901  -0.867539019754 Bohr
[INPUT]  8 C     -4.140002340821   1.230573978239   1.841836357235 AA   -7.823470579210   2.325447794887   3.480566281441 Bohr
[INPUT]  9 C     -4.664316050771   2.132010269769  -0.446870321523 AA   -8.814279894370   4.028915504623  -0.844462520874 Bohr
[INPUT] 10 C     -2.139350656840   0.564611082077  -0.412983948152 AA   -4.042786825837   1.066960312020  -0.780426555848 Bohr
[INPUT] 11 C     -2.681954853441  -2.307379106930  -1.177749007820 AA   -5.068160151452  -4.360314577642  -2.225623068258 Bohr
[INPUT] 12 C     -0.905941449907   0.028898972479  -0.164741820756 AA   -1.711981225216   0.054611143268  -0.311316922490 Bohr
[INPUT] 13 C      0.362667685428   0.693790348467  -0.386322790198 AA    0.685342599688   1.311073746469  -0.730044269152 Bohr
[INPUT] 14 C      0.360367355952   2.088235692381  -0.964857742833 AA    0.680995606983   3.946193542142  -1.823316883121 Bohr
[INPUT] 15 C      1.521572780110   0.015564862642  -0.057114906586 AA    2.875355833000   0.029413327559  -0.107931531077 Bohr
[INPUT] 16 C      2.868174400806   0.479493552484  -0.197633397354 AA    5.420064095012   0.906111492690  -0.373472994066 Bohr
[INPUT] 17 C      3.967968580558  -0.266376618278   0.153927827599 AA    7.498373888134  -0.503378854533   0.290881437111 Bohr
[INPUT] 18 C      5.348180559351   0.150730657038   0.032133978621 AA   10.106596521897   0.284839660377   0.060724418885 Bohr
[INPUT] 19 C      5.637973092713   1.526596953767  -0.527259654955 AA   10.654225042894   2.884850145215  -0.996376344398 Bohr
[INPUT] 20 C      6.334625523180  -0.725985422219   0.431449473008 AA   11.970707340489  -1.371913618420   0.815321340573 Bohr
[INPUT] 21 C      7.776189414137  -0.507225669544   0.392867291760 AA   14.694868285461  -0.958517598787   0.742411584727 Bohr
[INPUT] 22 H     -6.315275504084   0.159872514031  -0.644443024793 AA  -11.934141103894   0.302115266364  -1.217820819746 Bohr
[INPUT] 23 H     -6.611123441867   0.732152286033   1.010080232030 AA  -12.493212680821   1.383567302077   1.908775002374 Bohr
[INPUT] 24 H     -6.845870926064  -1.754294621964   0.920832026283 AA  -12.936821134383  -3.315136377309   1.740120336404 Bohr
[INPUT] 25 H     -5.406891313966  -1.352421334413   1.877351654514 AA  -10.217543768686  -2.555705927059   3.547680466530 Bohr
[INPUT] 26 H     -5.517656342294  -2.303965845582  -1.047588061693 AA  -10.426859336405  -4.353864448502  -1.979654527964 Bohr
[INPUT] 27 H     -4.722763629692  -3.100508745985   0.306220051113 AA   -8.924729811176  -5.859112376730   0.578672030453 Bohr
[INPUT] 28 H     -4.872220757264   1.943426454930   2.263123923361 AA   -9.207162849650   3.672543743051   4.276684401103 Bohr
[INPUT] 29 H     -4.098615767378   0.344941717335   2.498908871211 AA   -7.745261290169   0.651845374699   4.722253376835 Bohr
[INPUT] 30 H     -3.143215463730   1.704963455724   1.861111226544 AA   -5.939816376948   3.221913983710   3.516990505522 Bohr
[INPUT] 31 H     -5.537932795550   2.710134033577  -0.096346986283 AA  -10.465176279837   5.121411084324  -0.182069417002 Bohr
[INPUT] 32 H     -3.781761530728   2.787825359318  -0.356143623212 AA   -7.146493561492   5.268226412229  -0.673013908881 Bohr
[INPUT] 33 H     -4.815472192067   1.895186082545  -1.514791447246 AA   -9.099923603465   3.581382651097  -2.862540971129 Bohr
[INPUT] 34 H     -2.177035194682   1.606027060874  -0.755085596110 AA   -4.114000281489   3.034951293691  -1.426904977251 Bohr
[INPUT] 35 H     -2.171941155281  -2.994972374860  -0.474658910497 AA   -4.104373942152  -5.659677539125  -0.896975343424 Bohr
[INPUT] 36 H     -1.908609963874  -1.746758283095  -1.724756009533 AA   -3.606750110338  -3.300894760866  -3.259316489715 Bohr
[INPUT] 37 H     -3.229639480817  -2.948696511438  -1.894203615412 AA   -6.103134099827  -5.572228831079  -3.579526057290 Bohr
[INPUT] 38 H     -0.843819771261  -0.978974434506   0.263308384275 AA   -1.594588266176  -1.849993564168   0.497580732582 Bohr
[INPUT] 39 H      1.374183413281   2.495710543716  -1.088054624837 AA    2.596830296020   4.716209413813  -2.056125249508 Bohr
[INPUT] 40 H     -0.205515997149   2.778546279121  -0.312598915822 AA   -0.388368948829   5.250691491968  -0.590726337740 Bohr
[INPUT] 41 H     -0.135225586715   2.100014605985  -1.952466521681 AA   -0.255539323925   3.968452462899  -3.689626993360 Bohr
[INPUT] 42 H      1.401699696782  -0.995018700732   0.357622285626 AA    2.648828535804  -1.880312833203   0.675808175874 Bohr
[INPUT] 43 H      3.023721880557   1.483492871026  -0.609168733880 AA    5.714006231108   2.803395233984  -1.151162070682 Bohr
[INPUT] 44 H      3.802800267625  -1.271250130774   0.565260437784 AA    7.186251012234  -2.402314582980   1.068187416463 Bohr
[INPUT] 45 H      5.159225806024   2.303553427673   0.095470492441 AA    9.749523788173   4.353085091604   0.180413083691 Bohr
[INPUT] 46 H      5.220895991453   1.623374635113  -1.545763289198 AA    9.866063548685   3.067733457929  -2.921069269991 Bohr
[INPUT] 47 H      6.713581577765   1.744295738240  -0.577087111762 AA   12.686830496902   3.296241225519  -1.090536591246 Bohr
[INPUT] 48 H      6.040513993685  -1.706949192591   0.826929298297 AA   11.414917099668  -3.225666482545   1.562669898160 Bohr
[INPUT] 49 H      8.123832155725   0.483554957576  -0.004140928397 AA   15.351817856255   0.913786435995  -0.007825220571 Bohr
[INPUT] ---------------- BASIS SET ---------------- 
[INPUT] l, kappa, [nprim/nctr], expnt,             c_1 c_2 ...
[INPUT] H
[INPUT] 0    0    [3    /1   ]  34.061341         0.0060251978
                                5.1235746         0.045021094
                                1.1646626         0.20189726
[INPUT] 0    0    [1    /1   ]  0.32723041           1
[INPUT] 0    0    [1    /1   ]  0.10307241           1
[INPUT] 1    0    [1    /1   ]  0.8                  1
[INPUT] O
[INPUT] 0    0    [6    /1   ]  27032.382631      0.00021726302465
                                4052.3871392      0.0016838662199
                                922.3272271       0.0087395616265
                                261.24070989      0.035239968808
                                85.354641351      0.11153519115
                                31.035035245      0.25588953961
[INPUT] 0    0    [2    /1   ]  12.260860728      0.39768730901
                                4.9987076005      0.2462784943
[INPUT] 0    0    [1    /1   ]  1.1703108158         1
[INPUT] 0    0    [1    /1   ]  0.46474740994        1
[INPUT] 0    0    [1    /1   ]  0.18504536357        1
[INPUT] 1    0    [4    /1   ]  63.274954801      0.0060685103418
                                14.627049379      0.041912575824
                                4.4501223456      0.16153841088
                                1.5275799647      0.35706951311
[INPUT] 1    0    [1    /1   ]  0.52935117943        1
[INPUT] 1    0    [1    /1   ]  0.1747842127         1
[INPUT] 2    0    [1    /1   ]  2.314                1
[INPUT] 2    0    [1    /1   ]  0.645                1
[INPUT] 3    0    [1    /1   ]  1.428                1
[INPUT] C
[INPUT] 0    0    [6    /1   ]  13575.349682      0.00022245814352
                                2035.233368       0.0017232738252
                                463.22562359      0.0089255715314
                                131.20019598      0.035727984502
                                42.853015891      0.11076259931
                                15.584185766      0.24295627626
[INPUT] 0    0    [2    /1   ]  6.2067138508      0.41440263448
                                2.5764896527      0.23744968655
[INPUT] 0    0    [1    /1   ]  0.57696339419        1
[INPUT] 0    0    [1    /1   ]  0.22972831358        1
[INPUT] 0    0    [1    /1   ]  0.095164440028       1
[INPUT] 1    0    [4    /1   ]  34.697232244      0.0053333657805
                                7.9582622826      0.035864109092
                                2.3780826883      0.14215873329
                                0.81433208183     0.34270471845
[INPUT] 1    0    [1    /1   ]  0.28887547253        1
[INPUT] 1    0    [1    /1   ]  0.10056823671        1
[INPUT] 2    0    [1    /1   ]  1.097                1
[INPUT] 2    0    [1    /1   ]  0.318                1
[INPUT] 3    0    [1    /1   ]  0.761                1

nuclear repulsion = 1518.71363523781
number of shells = 343
number of NR pGTOs = 1190
number of NR cGTOs = 819
basis = def2-tzvp
ecp = {}
CPU time:         3.05
RKS
Density fitting turned on
Molecule built
Calculating SCF Energy...


******** <class 'pyscf.df.df_jk.density_fit.<locals>.DFHF'> ********
method = DFHF-RKS-RHF
initial guess = chkfile
damping factor = 0
level_shift factor = 0
DIIS = <class 'pyscf.scf.diis.CDIIS'>
diis_start_cycle = 1
diis_space = 8
SCF conv_tol = 1e-10
SCF conv_tol_grad = None
SCF max_cycles = 50
direct_scf = True
direct_scf_tol = 1e-13
chkfile to save SCF result = 49_Retinal_pbe0.chk
max_memory 50000 MB (current use 56 MB)
XC functionals = pbe0
small_rho_cutoff = 1e-07
radial grids: 
    Treutler-Ahlrichs [JCP 102, 346 (1995); DOI:10.1063/1.469408] (M4) radial grids
    
becke partition: Becke, JCP 88, 2547 (1988); DOI:10.1063/1.454033
pruning grids: <function nwchem_prune at 0x7fa140d7c048>
grids dens level: 3
symmetrized grids: False
atomic radii adjust function: <function treutler_atomic_radii_adjust at 0x7fa140d68f28>
Set gradient conv threshold to 1e-05
atom O rad-grids = 75, ang-grids = [ 50  50  50  50  50  50  50  50  50  50  50  50  50  50  50  50  50  50
  50  50  50  50  86  86  86  86  86  86  86  86  86 266 266 266 266 266
 266 266 302 302 302 302 302 302 302 302 302 302 302 302 302 302 302 302
 302 302 302 266 266 266 266 266 266 266 266 266 266 266 266 266 266 266
 266 266 266]
atom C rad-grids = 75, ang-grids = [ 50  50  50  50  50  50  50  50  50  50  50  50  50  50  50  50  50  50
  50  50  50  50  50  86  86  86  86  86  86  86  86  86  86 266 266 266
 266 266 266 266 302 302 302 302 302 302 302 302 302 302 302 302 302 302
 302 302 302 302 302 302 266 266 266 266 266 266 266 266 266 266 266 266
 266 266 266]
atom H rad-grids = 50, ang-grids = [ 50  50  50  50  50  50  50  50  50  50  50  50  50  50  86  86  86  86
 266 266 266 266 302 302 302 302 302 302 302 302 302 302 302 302 302 266
 266 266 266 266 266 266 266 266 266 266 266 266 266 266]
tot grids = 572974
Drop grids 106950
    CPU time for setting up grids     87.80 sec, wall time      6.46 sec
nelec by numeric integration = 156.00012455774515
    CPU time for vxc    107.88 sec, wall time      7.34 sec
******** <class 'pyscf.df.df.DF'> ********
auxbasis = None
max_memory = 50000
_cderi_to_save = /tmp/job.15971950.hpc/tmptsgv9ts4
Default auxbasis def2-tzvp-jkfit is used for H def2-tzvp
Default auxbasis def2-tzvp-jkfit is used for O def2-tzvp
Default auxbasis def2-tzvp-jkfit is used for C def2-tzvp
num shells = 693, num cGTOs = 2081
size of aux basis 2081
int3c2e [1/1], AO [0:343], nrow = 335790
    CPU time for cholesky_eri     83.93 sec, wall time     15.22 sec
    CPU time for df vj and vk    234.42 sec, wall time     27.02 sec
E1 = -4169.209057801386  Ecoul = 1923.5259130368431  Exc = -126.45331248981881
init E= -853.42282201655
cond(S) = 689350.1788734539
    CPU time for initialize scf    437.66 sec, wall time     41.70 sec
  HOMO = -0.210304952206375  LUMO = -0.0955331782152301
  mo_energy =
[-1.91846167e+01 -1.02970338e+01 -1.02692551e+01 -1.02598904e+01
 -1.02509172e+01 -1.02492608e+01 -1.02439970e+01 -1.02431670e+01
 -1.02416064e+01 -1.02398307e+01 -1.02372855e+01 -1.02369313e+01
 -1.02363859e+01 -1.02351904e+01 -1.02322422e+01 -1.02306358e+01
 -1.02246951e+01 -1.02232504e+01 -1.02227279e+01 -1.02198908e+01
 -1.02157444e+01 -1.04897596e+00 -8.86039430e-01 -8.73352051e-01
 -8.56535994e-01 -8.18406114e-01 -8.13935971e-01 -7.90759376e-01
 -7.55844907e-01 -7.37645499e-01 -7.23706043e-01 -7.10843175e-01
 -7.07732913e-01 -6.99355085e-01 -6.70872891e-01 -6.33161952e-01
 -6.04663306e-01 -5.88574257e-01 -5.70554701e-01 -5.60621656e-01
 -5.49272323e-01 -5.26647567e-01 -5.06414378e-01 -5.01412701e-01
 -4.88881223e-01 -4.77164043e-01 -4.69735271e-01 -4.60250814e-01
 -4.52372385e-01 -4.48482614e-01 -4.44459054e-01 -4.43958126e-01
 -4.42027625e-01 -4.28418940e-01 -4.21892358e-01 -4.17593046e-01
 -4.15956155e-01 -4.13026334e-01 -4.06663936e-01 -4.02283338e-01
 -3.94867685e-01 -3.90265341e-01 -3.89207321e-01 -3.85647808e-01
 -3.76028518e-01 -3.69133402e-01 -3.66485448e-01 -3.61794320e-01
 -3.59873030e-01 -3.57068219e-01 -3.36645024e-01 -3.30387933e-01
 -3.20937150e-01 -3.13369548e-01 -2.90293000e-01 -2.58208672e-01
 -2.52869512e-01 -2.10304952e-01 -9.55331782e-02 -3.48730496e-02
  1.35081219e-02  2.68609148e-02  3.50926910e-02  4.26969898e-02
  4.70112978e-02  5.13178782e-02  5.92288379e-02  6.47388289e-02
  6.78057015e-02  7.06120306e-02  7.36721903e-02  8.09513552e-02
  8.54295167e-02  8.70436380e-02  8.92454960e-02  9.17620023e-02
  1.01235882e-01  1.11056151e-01  1.16098215e-01  1.20694622e-01
  1.23201256e-01  1.25138405e-01  1.30526982e-01  1.33786323e-01
  1.37747174e-01  1.41551950e-01  1.42976705e-01  1.46155319e-01
  1.49531348e-01  1.50608627e-01  1.53736124e-01  1.59513523e-01
  1.65888010e-01  1.71615849e-01  1.74170015e-01  1.79410834e-01
  1.83893326e-01  1.87391029e-01  1.89011211e-01  1.92365774e-01
  1.96046008e-01  1.99262123e-01  2.05182906e-01  2.08510336e-01
  2.11295500e-01  2.16341959e-01  2.17834547e-01  2.31504501e-01
  2.34324980e-01  2.36295621e-01  2.39256348e-01  2.46700151e-01
  2.52840019e-01  2.60582537e-01  2.65409684e-01  2.69190914e-01
  2.73618418e-01  2.76972661e-01  2.81192397e-01  2.83983513e-01
  2.89237010e-01  2.90474214e-01  2.98592909e-01  3.03465115e-01
  3.11084097e-01  3.14706159e-01  3.20353451e-01  3.22434413e-01
  3.28434559e-01  3.30531597e-01  3.33490202e-01  3.39221732e-01
  3.46619840e-01  3.50990196e-01  3.52610801e-01  3.57820048e-01
  3.60970929e-01  3.65854494e-01  3.69908149e-01  3.74856625e-01
  3.78982110e-01  3.85062959e-01  3.87558299e-01  3.91178763e-01
  3.92542041e-01  4.01157943e-01  4.04890882e-01  4.08107255e-01
  4.13617274e-01  4.14031479e-01  4.18156125e-01  4.22770576e-01
  4.24483962e-01  4.28280358e-01  4.29847282e-01  4.30945852e-01
  4.35382976e-01  4.41144141e-01  4.42207018e-01  4.43656288e-01
  4.44515937e-01  4.48724421e-01  4.56439294e-01  4.60254027e-01
  4.63317164e-01  4.66224239e-01  4.69240378e-01  4.71495536e-01
  4.75723654e-01  4.81499040e-01  4.83352785e-01  4.85012676e-01
  4.86347580e-01  4.88835026e-01  4.95563009e-01  4.96539350e-01
  5.02867994e-01  5.03840184e-01  5.08562056e-01  5.10763677e-01
  5.17938565e-01  5.19949215e-01  5.23053631e-01  5.29616863e-01
  5.32693533e-01  5.39068704e-01  5.39638578e-01  5.43711786e-01
  5.59400275e-01  5.65516409e-01  5.71774590e-01  5.77021444e-01
  5.84135193e-01  5.87296688e-01  5.90250899e-01  5.99863468e-01
  6.01639738e-01  6.10013015e-01  6.12100637e-01  6.16664228e-01
  6.22346747e-01  6.30994433e-01  6.32625094e-01  6.36903363e-01
  6.46354911e-01  6.51073910e-01  6.53551898e-01  6.62899833e-01
  6.70507151e-01  6.79605331e-01  6.82063560e-01  6.93513170e-01
  6.96266225e-01  7.03476299e-01  7.04750337e-01  7.13625976e-01
  7.15473951e-01  7.22345891e-01  7.25906016e-01  7.41649999e-01
  7.44165537e-01  7.50380808e-01  7.56398718e-01  7.64962077e-01
  7.67244263e-01  7.78862337e-01  7.79630467e-01  7.83857444e-01
  7.90740524e-01  7.99806208e-01  8.11768820e-01  8.12401761e-01
  8.25830891e-01  8.31104812e-01  8.40919979e-01  8.54115219e-01
  8.61566574e-01  8.74350365e-01  8.80192519e-01  8.81300671e-01
  8.87246554e-01  8.87855667e-01  9.00763723e-01  9.02922462e-01
  9.07921061e-01  9.20035928e-01  9.20639856e-01  9.30530492e-01
  9.35197622e-01  9.49363619e-01  9.57009592e-01  9.63781873e-01
  9.66797343e-01  9.70900780e-01  9.79100690e-01  9.82496618e-01
  9.89044330e-01  9.93411071e-01  9.99468435e-01  1.01649906e+00
  1.01857709e+00  1.03274732e+00  1.03444145e+00  1.03906515e+00
  1.04010960e+00  1.04678992e+00  1.06295650e+00  1.06444959e+00
  1.06802683e+00  1.07564808e+00  1.08350264e+00  1.09068334e+00
  1.09447020e+00  1.10190461e+00  1.10664052e+00  1.12436425e+00
  1.12638545e+00  1.13469841e+00  1.14247670e+00  1.14989057e+00
  1.15660240e+00  1.16694285e+00  1.16951754e+00  1.17727905e+00
  1.18840706e+00  1.20203799e+00  1.20268919e+00  1.20960298e+00
  1.21829074e+00  1.22434708e+00  1.23360992e+00  1.23737757e+00
  1.24214051e+00  1.24628161e+00  1.25851009e+00  1.26587708e+00
  1.26888586e+00  1.28248916e+00  1.28523205e+00  1.29892324e+00
  1.30324697e+00  1.30816954e+00  1.31670573e+00  1.32758726e+00
  1.33433510e+00  1.34225979e+00  1.34786586e+00  1.35059856e+00
  1.35973824e+00  1.36944730e+00  1.38495929e+00  1.39100227e+00
  1.39944891e+00  1.42911113e+00  1.42968294e+00  1.43606720e+00
  1.43977572e+00  1.45326781e+00  1.46357190e+00  1.47865754e+00
  1.48031281e+00  1.49485093e+00  1.49620670e+00  1.50252174e+00
  1.50942384e+00  1.51551204e+00  1.51756824e+00  1.52326923e+00
  1.52603750e+00  1.53061252e+00  1.54252436e+00  1.54622265e+00
  1.54831830e+00  1.55121209e+00  1.55507038e+00  1.56339885e+00
  1.56624533e+00  1.56787617e+00  1.57823300e+00  1.58891170e+00
  1.59282706e+00  1.59687153e+00  1.59745555e+00  1.60675881e+00
  1.60948957e+00  1.61464050e+00  1.61919788e+00  1.62052702e+00
  1.62439292e+00  1.63127095e+00  1.64278188e+00  1.64865220e+00
  1.65329334e+00  1.65871162e+00  1.66336402e+00  1.66689185e+00
  1.67316529e+00  1.67916973e+00  1.69151247e+00  1.69186766e+00
  1.69720565e+00  1.71377971e+00  1.71720316e+00  1.73377147e+00
  1.73794609e+00  1.74269014e+00  1.74727579e+00  1.75074120e+00
  1.76000071e+00  1.76478293e+00  1.78400924e+00  1.78938140e+00
  1.79429836e+00  1.80983875e+00  1.81845882e+00  1.82183389e+00
  1.83190717e+00  1.83909979e+00  1.84939921e+00  1.87126892e+00
  1.87935897e+00  1.88415913e+00  1.89046777e+00  1.89242862e+00
  1.90381025e+00  1.90967742e+00  1.91885369e+00  1.93011701e+00
  1.94158276e+00  1.94747246e+00  1.95482461e+00  1.95620975e+00
  1.97759156e+00  1.98622932e+00  1.99343819e+00  1.99967638e+00
  2.00381817e+00  2.01372736e+00  2.01488531e+00  2.02189320e+00
  2.02997632e+00  2.03919700e+00  2.04446639e+00  2.05740324e+00
  2.06559446e+00  2.06774974e+00  2.07624705e+00  2.08039325e+00
  2.09033610e+00  2.10524645e+00  2.11018137e+00  2.11920616e+00
  2.12903046e+00  2.13596586e+00  2.15087376e+00  2.16119003e+00
  2.16587769e+00  2.17192422e+00  2.17939874e+00  2.18270100e+00
  2.19036528e+00  2.19793894e+00  2.21912482e+00  2.23336146e+00
  2.23660093e+00  2.24326953e+00  2.24889549e+00  2.25776046e+00
  2.27172369e+00  2.28399014e+00  2.29471762e+00  2.29900916e+00
  2.30699646e+00  2.30781180e+00  2.31195640e+00  2.31725679e+00
  2.32394678e+00  2.33506569e+00  2.34136370e+00  2.35180080e+00
  2.35386454e+00  2.36700661e+00  2.37406039e+00  2.38311459e+00
  2.38389968e+00  2.38635370e+00  2.39321818e+00  2.39690349e+00
  2.41324338e+00  2.42267622e+00  2.43029403e+00  2.43564050e+00
  2.43794736e+00  2.45145801e+00  2.46696309e+00  2.47562705e+00
  2.48320640e+00  2.49189093e+00  2.49477734e+00  2.49768258e+00
  2.50156371e+00  2.51257687e+00  2.51499011e+00  2.51575950e+00
  2.51989510e+00  2.53013099e+00  2.53296643e+00  2.53713727e+00
  2.54310426e+00  2.55154322e+00  2.55794342e+00  2.56284966e+00
  2.57668105e+00  2.58333865e+00  2.58712110e+00  2.58884451e+00
  2.59358271e+00  2.59554470e+00  2.60336880e+00  2.60890555e+00
  2.61398867e+00  2.62571599e+00  2.63266994e+00  2.63523963e+00
  2.64016495e+00  2.64639898e+00  2.65717178e+00  2.66428699e+00
  2.67473967e+00  2.67816777e+00  2.68309938e+00  2.69112546e+00
  2.70347954e+00  2.70738517e+00  2.71246567e+00  2.71893276e+00
  2.72903500e+00  2.73090365e+00  2.73945138e+00  2.74182529e+00
  2.74371867e+00  2.75729847e+00  2.76286929e+00  2.77170435e+00
  2.77677004e+00  2.77925209e+00  2.78399164e+00  2.79447232e+00
  2.80777015e+00  2.81792970e+00  2.82445355e+00  2.83118565e+00
  2.83397941e+00  2.83952439e+00  2.84531382e+00  2.85000625e+00
  2.85389759e+00  2.85910511e+00  2.86856717e+00  2.87824250e+00
  2.88924751e+00  2.89134981e+00  2.89724124e+00  2.90122869e+00
  2.90941690e+00  2.91507287e+00  2.91928354e+00  2.92586113e+00
  2.94097987e+00  2.94422308e+00  2.95741302e+00  2.96322216e+00
  2.97386104e+00  2.98592585e+00  2.99386216e+00  2.99842790e+00
  3.00650388e+00  3.02255357e+00  3.03033689e+00  3.03650315e+00
  3.03831770e+00  3.04151194e+00  3.05314036e+00  3.06013838e+00
  3.06507121e+00  3.07174599e+00  3.07324088e+00  3.08222002e+00
  3.09001959e+00  3.09258219e+00  3.09819990e+00  3.10647933e+00
  3.10946247e+00  3.12196664e+00  3.13060944e+00  3.13459793e+00
  3.14118461e+00  3.14536812e+00  3.15252730e+00  3.16188484e+00
  3.16313749e+00  3.16937991e+00  3.18209436e+00  3.18399233e+00
  3.19048891e+00  3.19741880e+00  3.20199008e+00  3.20312878e+00
  3.20801981e+00  3.21202116e+00  3.21571909e+00  3.22099005e+00
  3.22720613e+00  3.24141316e+00  3.24486351e+00  3.24962709e+00
  3.25311806e+00  3.25691428e+00  3.26139918e+00  3.26617653e+00
  3.26910601e+00  3.27553093e+00  3.28038618e+00  3.28309596e+00
  3.28848759e+00  3.29476498e+00  3.29954276e+00  3.30393745e+00
  3.31552959e+00  3.32049173e+00  3.32685573e+00  3.32913841e+00
  3.33692001e+00  3.34398161e+00  3.34529550e+00  3.34762326e+00
  3.35555119e+00  3.35973856e+00  3.36112582e+00  3.36839289e+00
  3.37372407e+00  3.38140055e+00  3.38877335e+00  3.39275176e+00
  3.39553271e+00  3.40535525e+00  3.41059890e+00  3.41327075e+00
  3.42212652e+00  3.43060406e+00  3.43297941e+00  3.44677336e+00
  3.45410821e+00  3.45711293e+00  3.46111333e+00  3.46905431e+00
  3.48827290e+00  3.49643205e+00  3.49965961e+00  3.50720455e+00
  3.51263576e+00  3.51714856e+00  3.52184721e+00  3.52559238e+00
  3.54261936e+00  3.54875130e+00  3.55386112e+00  3.56486166e+00
  3.57343591e+00  3.58527712e+00  3.59167872e+00  3.59863791e+00
  3.60412939e+00  3.61188531e+00  3.61808293e+00  3.62162656e+00
  3.63556035e+00  3.64729949e+00  3.65307453e+00  3.66055364e+00
  3.67909953e+00  3.68391328e+00  3.69137996e+00  3.70166528e+00
  3.70821166e+00  3.71439009e+00  3.72755400e+00  3.73795994e+00
  3.75086855e+00  3.75346555e+00  3.75658439e+00  3.77449274e+00
  3.78167485e+00  3.78636655e+00  3.78842806e+00  3.79917231e+00
  3.82594148e+00  3.82819572e+00  3.83858036e+00  3.84570949e+00
  3.85578673e+00  3.87033963e+00  3.88715898e+00  3.88943921e+00
  3.91133784e+00  3.91713393e+00  3.92174254e+00  3.92981064e+00
  3.93970396e+00  3.95068575e+00  3.96117390e+00  3.96596000e+00
  3.97158604e+00  3.98657304e+00  4.01337011e+00  4.01633109e+00
  4.02004209e+00  4.04266721e+00  4.04863368e+00  4.07253751e+00
  4.08674843e+00  4.09546953e+00  4.10782649e+00  4.12743076e+00
  4.13313179e+00  4.13455223e+00  4.14127078e+00  4.16561182e+00
  4.16904367e+00  4.18007628e+00  4.18717840e+00  4.21722031e+00
  4.22142464e+00  4.23446269e+00  4.23733014e+00  4.25230967e+00
  4.25807398e+00  4.26911510e+00  4.27231695e+00  4.27837302e+00
  4.29199340e+00  4.29945853e+00  4.30440538e+00  4.33025326e+00
  4.34106988e+00  4.34567523e+00  4.35732009e+00  4.38121902e+00
  4.39593321e+00  4.40342081e+00  4.41091350e+00  4.42177543e+00
  4.43392351e+00  4.44136497e+00  4.45140348e+00  4.45916913e+00
  4.47299357e+00  4.47606720e+00  4.48491084e+00  4.49109503e+00
  4.50157972e+00  4.52649989e+00  4.53255581e+00  4.54033697e+00
  4.54763798e+00  4.55027821e+00  4.58919117e+00  4.59491280e+00
  4.61442390e+00  4.62857384e+00  4.64054569e+00  4.65412698e+00
  4.67531940e+00  4.69414379e+00  4.70289890e+00  4.72777770e+00
  4.73226929e+00  4.75308759e+00  4.79229829e+00  4.79266445e+00
  4.82920773e+00  4.84986227e+00  4.86790813e+00  4.89004240e+00
  4.90305203e+00  4.91959697e+00  4.95487868e+00  4.96567808e+00
  4.99289584e+00  5.00822870e+00  5.05050011e+00  5.07938024e+00
  5.10364439e+00  5.12676220e+00  5.12796663e+00  5.14022295e+00
  5.17551019e+00  5.21080309e+00  5.21678194e+00  5.23985249e+00
  5.26706881e+00  5.29532043e+00  5.32470568e+00  5.36195409e+00
  5.45575710e+00  5.53861934e+00  5.56011564e+00  5.57516250e+00
  5.63163248e+00  5.70974010e+00  6.07449444e+00  6.33516928e+00
  6.37810459e+00  6.45759439e+00  6.50423163e+00  6.82289786e+00
  6.99554770e+00  7.07934111e+00  2.23805350e+01  2.24472500e+01
  2.24496210e+01  2.24645472e+01  2.24952105e+01  2.25196168e+01
  2.25724309e+01  2.25843414e+01  2.26241445e+01  2.26437283e+01
  2.26586142e+01  2.27175102e+01  2.27626459e+01  2.27913573e+01
  2.28392815e+01  2.28651155e+01  2.29087094e+01  2.30732021e+01
  2.31468229e+01  2.33059793e+01  4.39459105e+01]
nelec by numeric integration = 156.0001245576358
    CPU time for vxc     93.07 sec, wall time      6.45 sec
    CPU time for df vj and vk    150.00 sec, wall time     12.12 sec
E1 = -4169.209035447242  Ecoul = 1923.525892066593  Exc = -126.45331387367109
cycle= 1 E= -853.422822016508  delta_E= 4.18e-11  |g|= 1.4e-05  |ddm|= 2.09e-05
    CPU time for cycle= 1    247.53 sec, wall time     19.81 sec
  HOMO = -0.210305333706595  LUMO = -0.0955329089507153
  mo_energy =
[-1.91846160e+01 -1.02970255e+01 -1.02692567e+01 -1.02598965e+01
 -1.02509205e+01 -1.02492607e+01 -1.02440002e+01 -1.02431652e+01
 -1.02416054e+01 -1.02398338e+01 -1.02372879e+01 -1.02369321e+01
 -1.02363859e+01 -1.02351928e+01 -1.02322314e+01 -1.02306366e+01
 -1.02246950e+01 -1.02232502e+01 -1.02227289e+01 -1.02198905e+01
 -1.02157440e+01 -1.04897286e+00 -8.86040406e-01 -8.73352442e-01
 -8.56536627e-01 -8.18406837e-01 -8.13936589e-01 -7.90759731e-01
 -7.55845943e-01 -7.37643610e-01 -7.23707234e-01 -7.10843892e-01
 -7.07733120e-01 -6.99355588e-01 -6.70872713e-01 -6.33161983e-01
 -6.04663473e-01 -5.88574462e-01 -5.70554623e-01 -5.60621279e-01
 -5.49271357e-01 -5.26648395e-01 -5.06414877e-01 -5.01412396e-01
 -4.88881544e-01 -4.77164560e-01 -4.69735443e-01 -4.60250884e-01
 -4.52372966e-01 -4.48482840e-01 -4.44459884e-01 -4.43959236e-01
 -4.42028392e-01 -4.28417991e-01 -4.21892035e-01 -4.17593419e-01
 -4.15956776e-01 -4.13027104e-01 -4.06664438e-01 -4.02283173e-01
 -3.94864584e-01 -3.90265240e-01 -3.89207813e-01 -3.85648317e-01
 -3.76028823e-01 -3.69133849e-01 -3.66485863e-01 -3.61794965e-01
 -3.59874098e-01 -3.57069040e-01 -3.36645381e-01 -3.30388556e-01
 -3.20937774e-01 -3.13370211e-01 -2.90292751e-01 -2.58206231e-01
 -2.52869906e-01 -2.10305334e-01 -9.55329090e-02 -3.48730454e-02
  1.35077023e-02  2.68601996e-02  3.50921656e-02  4.26970652e-02
  4.70110970e-02  5.13176505e-02  5.92279430e-02  6.47391075e-02
  6.78068600e-02  7.06114637e-02  7.36722819e-02  8.09520603e-02
  8.54293345e-02  8.70433130e-02  8.92447535e-02  9.17612080e-02
  1.01235713e-01  1.11055937e-01  1.16097783e-01  1.20694305e-01
  1.23200999e-01  1.25138296e-01  1.30526715e-01  1.33785919e-01
  1.37747668e-01  1.41551498e-01  1.42976363e-01  1.46154777e-01
  1.49531097e-01  1.50608449e-01  1.53735723e-01  1.59512802e-01
  1.65887660e-01  1.71615117e-01  1.74169715e-01  1.79410380e-01
  1.83892860e-01  1.87391536e-01  1.89010626e-01  1.92366343e-01
  1.96047452e-01  1.99261795e-01  2.05182288e-01  2.08509760e-01
  2.11294770e-01  2.16341849e-01  2.17834108e-01  2.31504381e-01
  2.34325244e-01  2.36295158e-01  2.39256040e-01  2.46700140e-01
  2.52840238e-01  2.60581779e-01  2.65409628e-01  2.69190917e-01
  2.73617969e-01  2.76972333e-01  2.81192012e-01  2.83983057e-01
  2.89236868e-01  2.90474730e-01  2.98592626e-01  3.03464904e-01
  3.11084329e-01  3.14705384e-01  3.20352870e-01  3.22434383e-01
  3.28435166e-01  3.30531217e-01  3.33490252e-01  3.39221496e-01
  3.46619700e-01  3.50989960e-01  3.52611151e-01  3.57819834e-01
  3.60970169e-01  3.65854697e-01  3.69907897e-01  3.74856228e-01
  3.78981876e-01  3.85062825e-01  3.87558214e-01  3.91178347e-01
  3.92541883e-01  4.01157859e-01  4.04890363e-01  4.08107716e-01
  4.13616790e-01  4.14031646e-01  4.18155768e-01  4.22770118e-01
  4.24483694e-01  4.28280547e-01  4.29846948e-01  4.30946391e-01
  4.35382417e-01  4.41143876e-01  4.42206671e-01  4.43655646e-01
  4.44515389e-01  4.48723914e-01  4.56438825e-01  4.60253536e-01
  4.63317003e-01  4.66223926e-01  4.69239982e-01  4.71495056e-01
  4.75723953e-01  4.81498687e-01  4.83352200e-01  4.85012266e-01
  4.86347403e-01  4.88834304e-01  4.95562411e-01  4.96539820e-01
  5.02868282e-01  5.03840839e-01  5.08562049e-01  5.10763218e-01
  5.17938645e-01  5.19948726e-01  5.23053083e-01  5.29617486e-01
  5.32693732e-01  5.39068313e-01  5.39638318e-01  5.43711151e-01
  5.59400540e-01  5.65516165e-01  5.71774182e-01  5.77020942e-01
  5.84134494e-01  5.87296163e-01  5.90250390e-01  5.99862794e-01
  6.01639468e-01  6.10013197e-01  6.12100796e-01  6.16664037e-01
  6.22346778e-01  6.30994434e-01  6.32624759e-01  6.36903525e-01
  6.46354690e-01  6.51073254e-01  6.53551767e-01  6.62899691e-01
  6.70506861e-01  6.79605396e-01  6.82064205e-01  6.93512801e-01
  6.96266433e-01  7.03475601e-01  7.04750184e-01  7.13625520e-01
  7.15473618e-01  7.22345281e-01  7.25906161e-01  7.41649867e-01
  7.44165415e-01  7.50382311e-01  7.56398364e-01  7.64962300e-01
  7.67244119e-01  7.78861870e-01  7.79629703e-01  7.83856901e-01
  7.90739694e-01  7.99805739e-01  8.11768396e-01  8.12400884e-01
  8.25830733e-01  8.31104248e-01  8.40919796e-01  8.54114840e-01
  8.61566051e-01  8.74350826e-01  8.80193000e-01  8.81300676e-01
  8.87245939e-01  8.87855282e-01  9.00763504e-01  9.02922413e-01
  9.07920825e-01  9.20035857e-01  9.20639689e-01  9.30530052e-01
  9.35197086e-01  9.49364132e-01  9.57009060e-01  9.63781757e-01
  9.66797190e-01  9.70900903e-01  9.79100143e-01  9.82496471e-01
  9.89044176e-01  9.93411631e-01  9.99468135e-01  1.01649876e+00
  1.01857670e+00  1.03274680e+00  1.03444085e+00  1.03906553e+00
  1.04010914e+00  1.04678982e+00  1.06295609e+00  1.06444912e+00
  1.06802689e+00  1.07564734e+00  1.08350201e+00  1.09068276e+00
  1.09446965e+00  1.10190486e+00  1.10664029e+00  1.12436390e+00
  1.12638580e+00  1.13469801e+00  1.14247638e+00  1.14989041e+00
  1.15660211e+00  1.16694239e+00  1.16951811e+00  1.17727844e+00
  1.18840683e+00  1.20203768e+00  1.20268881e+00  1.20960263e+00
  1.21829021e+00  1.22434683e+00  1.23360955e+00  1.23737757e+00
  1.24214057e+00  1.24628172e+00  1.25851002e+00  1.26587623e+00
  1.26888524e+00  1.28248866e+00  1.28523153e+00  1.29892262e+00
  1.30324704e+00  1.30816972e+00  1.31670546e+00  1.32758759e+00
  1.33433592e+00  1.34225945e+00  1.34786585e+00  1.35059923e+00
  1.35973766e+00  1.36944613e+00  1.38495857e+00  1.39100169e+00
  1.39944833e+00  1.42911311e+00  1.42968260e+00  1.43606660e+00
  1.43977592e+00  1.45326716e+00  1.46357300e+00  1.47865747e+00
  1.48031243e+00  1.49485220e+00  1.49620779e+00  1.50252116e+00
  1.50942389e+00  1.51551210e+00  1.51756787e+00  1.52326853e+00
  1.52603702e+00  1.53061273e+00  1.54252322e+00  1.54622227e+00
  1.54831792e+00  1.55121149e+00  1.55506984e+00  1.56339942e+00
  1.56624459e+00  1.56787607e+00  1.57823243e+00  1.58891159e+00
  1.59282652e+00  1.59687244e+00  1.59745517e+00  1.60675816e+00
  1.60948909e+00  1.61463995e+00  1.61919707e+00  1.62052698e+00
  1.62439209e+00  1.63127045e+00  1.64278128e+00  1.64865158e+00
  1.65329371e+00  1.65871099e+00  1.66336380e+00  1.66689140e+00
  1.67316486e+00  1.67916908e+00  1.69151250e+00  1.69186910e+00
  1.69720548e+00  1.71377974e+00  1.71720261e+00  1.73377111e+00
  1.73794578e+00  1.74268954e+00  1.74727540e+00  1.75074185e+00
  1.76000106e+00  1.76478299e+00  1.78400953e+00  1.78938109e+00
  1.79429825e+00  1.80983820e+00  1.81845799e+00  1.82183370e+00
  1.83190835e+00  1.83909920e+00  1.84939872e+00  1.87126840e+00
  1.87935837e+00  1.88415864e+00  1.89046769e+00  1.89243006e+00
  1.90380981e+00  1.90967699e+00  1.91885345e+00  1.93011671e+00
  1.94158251e+00  1.94747379e+00  1.95482410e+00  1.95620885e+00
  1.97759112e+00  1.98622931e+00  1.99343754e+00  1.99967564e+00
  2.00381802e+00  2.01372755e+00  2.01488507e+00  2.02189239e+00
  2.02997567e+00  2.03919602e+00  2.04446646e+00  2.05740272e+00
  2.06559336e+00  2.06774912e+00  2.07624666e+00  2.08039253e+00
  2.09033609e+00  2.10524629e+00  2.11018162e+00  2.11920646e+00
  2.12903019e+00  2.13596517e+00  2.15087321e+00  2.16118955e+00
  2.16587692e+00  2.17192357e+00  2.17939816e+00  2.18270268e+00
  2.19036509e+00  2.19793859e+00  2.21912424e+00  2.23336165e+00
  2.23660229e+00  2.24326915e+00  2.24889496e+00  2.25775961e+00
  2.27172307e+00  2.28398950e+00  2.29471693e+00  2.29900853e+00
  2.30699741e+00  2.30781235e+00  2.31195569e+00  2.31725555e+00
  2.32394620e+00  2.33506507e+00  2.34136310e+00  2.35180296e+00
  2.35386410e+00  2.36700652e+00  2.37405968e+00  2.38311388e+00
  2.38389968e+00  2.38635329e+00  2.39321716e+00  2.39690271e+00
  2.41324279e+00  2.42267605e+00  2.43029320e+00  2.43564003e+00
  2.43794691e+00  2.45145749e+00  2.46696239e+00  2.47562660e+00
  2.48320572e+00  2.49189129e+00  2.49477674e+00  2.49768320e+00
  2.50156472e+00  2.51257769e+00  2.51498907e+00  2.51575910e+00
  2.51989518e+00  2.53013063e+00  2.53296612e+00  2.53713726e+00
  2.54310368e+00  2.55154242e+00  2.55794286e+00  2.56284888e+00
  2.57668027e+00  2.58333810e+00  2.58712128e+00  2.58884458e+00
  2.59358310e+00  2.59554472e+00  2.60336889e+00  2.60890503e+00
  2.61398824e+00  2.62571567e+00  2.63267005e+00  2.63523895e+00
  2.64016514e+00  2.64639849e+00  2.65717259e+00  2.66428815e+00
  2.67473925e+00  2.67816771e+00  2.68309923e+00  2.69112485e+00
  2.70347955e+00  2.70738565e+00  2.71246558e+00  2.71893248e+00
  2.72903472e+00  2.73090374e+00  2.73945099e+00  2.74182482e+00
  2.74371838e+00  2.75729790e+00  2.76286809e+00  2.77170405e+00
  2.77677187e+00  2.77925178e+00  2.78399173e+00  2.79447259e+00
  2.80776928e+00  2.81792924e+00  2.82445385e+00  2.83118476e+00
  2.83397920e+00  2.83952378e+00  2.84531346e+00  2.85000567e+00
  2.85389717e+00  2.85910433e+00  2.86856680e+00  2.87824337e+00
  2.88924922e+00  2.89135155e+00  2.89724115e+00  2.90122889e+00
  2.90941683e+00  2.91507208e+00  2.91928268e+00  2.92586041e+00
  2.94097931e+00  2.94422225e+00  2.95741206e+00  2.96322138e+00
  2.97386077e+00  2.98592540e+00  2.99386093e+00  2.99842966e+00
  3.00650299e+00  3.02255295e+00  3.03033621e+00  3.03650295e+00
  3.03831870e+00  3.04151408e+00  3.05313966e+00  3.06013773e+00
  3.06507143e+00  3.07174591e+00  3.07323987e+00  3.08221973e+00
  3.09001918e+00  3.09258272e+00  3.09820075e+00  3.10647919e+00
  3.10946154e+00  3.12196699e+00  3.13060882e+00  3.13459769e+00
  3.14118361e+00  3.14536745e+00  3.15252821e+00  3.16188416e+00
  3.16313772e+00  3.16937922e+00  3.18209375e+00  3.18399222e+00
  3.19048849e+00  3.19741840e+00  3.20199031e+00  3.20313006e+00
  3.20801992e+00  3.21202102e+00  3.21571852e+00  3.22098967e+00
  3.22720581e+00  3.24141240e+00  3.24486330e+00  3.24962691e+00
  3.25311752e+00  3.25691434e+00  3.26139940e+00  3.26617660e+00
  3.26910695e+00  3.27553063e+00  3.28038538e+00  3.28309542e+00
  3.28848725e+00  3.29476521e+00  3.29954350e+00  3.30393762e+00
  3.31553015e+00  3.32049250e+00  3.32685561e+00  3.32913784e+00
  3.33691919e+00  3.34398103e+00  3.34529504e+00  3.34762276e+00
  3.35555107e+00  3.35973909e+00  3.36112525e+00  3.36839248e+00
  3.37372326e+00  3.38140019e+00  3.38877248e+00  3.39275131e+00
  3.39553228e+00  3.40535531e+00  3.41059863e+00  3.41327017e+00
  3.42212572e+00  3.43060355e+00  3.43297972e+00  3.44677285e+00
  3.45410793e+00  3.45711288e+00  3.46111353e+00  3.46905520e+00
  3.48827246e+00  3.49643155e+00  3.49965905e+00  3.50720436e+00
  3.51263523e+00  3.51714843e+00  3.52184651e+00  3.52559175e+00
  3.54261888e+00  3.54875093e+00  3.55386072e+00  3.56486160e+00
  3.57343521e+00  3.58527682e+00  3.59167848e+00  3.59863830e+00
  3.60412859e+00  3.61188480e+00  3.61808235e+00  3.62162627e+00
  3.63555977e+00  3.64729897e+00  3.65307483e+00  3.66055348e+00
  3.67910008e+00  3.68391473e+00  3.69137963e+00  3.70166493e+00
  3.70821096e+00  3.71438943e+00  3.72755380e+00  3.73796026e+00
  3.75086790e+00  3.75346525e+00  3.75658350e+00  3.77449230e+00
  3.78167407e+00  3.78636629e+00  3.78842785e+00  3.79917207e+00
  3.82594102e+00  3.82819512e+00  3.83858016e+00  3.84571018e+00
  3.85578590e+00  3.87033885e+00  3.88715830e+00  3.88943976e+00
  3.91133684e+00  3.91713513e+00  3.92174316e+00  3.92980995e+00
  3.93970292e+00  3.95068710e+00  3.96117386e+00  3.96595931e+00
  3.97158498e+00  3.98657248e+00  4.01337004e+00  4.01633064e+00
  4.02004169e+00  4.04266632e+00  4.04863286e+00  4.07253629e+00
  4.08674782e+00  4.09546873e+00  4.10782607e+00  4.12743055e+00
  4.13313214e+00  4.13455209e+00  4.14127035e+00  4.16561166e+00
  4.16904328e+00  4.18007801e+00  4.18717850e+00  4.21721980e+00
  4.22142452e+00  4.23446160e+00  4.23733038e+00  4.25230905e+00
  4.25807334e+00  4.26911411e+00  4.27231745e+00  4.27837295e+00
  4.29199349e+00  4.29945859e+00  4.30440521e+00  4.33025310e+00
  4.34106909e+00  4.34567468e+00  4.35731901e+00  4.38121858e+00
  4.39593263e+00  4.40342076e+00  4.41091287e+00  4.42177467e+00
  4.43392306e+00  4.44136416e+00  4.45140324e+00  4.45916928e+00
  4.47299294e+00  4.47606659e+00  4.48491034e+00  4.49109477e+00
  4.50157915e+00  4.52650176e+00  4.53255540e+00  4.54033667e+00
  4.54763740e+00  4.55027770e+00  4.58919105e+00  4.59491219e+00
  4.61442325e+00  4.62857352e+00  4.64054483e+00  4.65412637e+00
  4.67532041e+00  4.69414288e+00  4.70289881e+00  4.72777765e+00
  4.73226867e+00  4.75308716e+00  4.79229781e+00  4.79266467e+00
  4.82920758e+00  4.84986187e+00  4.86790761e+00  4.89004323e+00
  4.90305166e+00  4.91959741e+00  4.95487824e+00  4.96567709e+00
  4.99289521e+00  5.00822790e+00  5.05050024e+00  5.07937971e+00
  5.10364403e+00  5.12676197e+00  5.12796662e+00  5.14022228e+00
  5.17550912e+00  5.21080186e+00  5.21678367e+00  5.23985188e+00
  5.26706944e+00  5.29531957e+00  5.32470524e+00  5.36195355e+00
  5.45575692e+00  5.53861839e+00  5.56011789e+00  5.57516116e+00
  5.63163094e+00  5.70974245e+00  6.07449707e+00  6.33517229e+00
  6.37810594e+00  6.45759725e+00  6.50423306e+00  6.82289933e+00
  6.99554925e+00  7.07934286e+00  2.23805343e+01  2.24472491e+01
  2.24496199e+01  2.24645470e+01  2.24952106e+01  2.25196158e+01
  2.25724317e+01  2.25843431e+01  2.26241438e+01  2.26437283e+01
  2.26586132e+01  2.27175093e+01  2.27626458e+01  2.27913565e+01
  2.28392813e+01  2.28651212e+01  2.29087086e+01  2.30732028e+01
  2.31468213e+01  2.33059778e+01  4.39459113e+01]
nelec by numeric integration = 156.00012455776186
    CPU time for vxc     90.47 sec, wall time      6.54 sec
    CPU time for df vj and vk    150.85 sec, wall time     12.49 sec
E1 = -4169.209127520035  Ecoul = 1923.5259848499181  Exc = -126.45331458403403
cycle= 2 E= -853.422822016339  delta_E= 1.69e-10  |g|= 2.84e-05  |ddm|= 4.18e-05
    CPU time for cycle= 2    246.06 sec, wall time     19.74 sec
  HOMO = -0.210304986838251  LUMO = -0.0955329926225491
  mo_energy =
[-1.91846160e+01 -1.02970305e+01 -1.02692558e+01 -1.02598921e+01
 -1.02509179e+01 -1.02492607e+01 -1.02439983e+01 -1.02431666e+01
 -1.02416056e+01 -1.02398316e+01 -1.02372859e+01 -1.02369316e+01
 -1.02363856e+01 -1.02351910e+01 -1.02322387e+01 -1.02306360e+01
 -1.02246950e+01 -1.02232502e+01 -1.02227281e+01 -1.02198905e+01
 -1.02157441e+01 -1.04897462e+00 -8.86039665e-01 -8.73352116e-01
 -8.56536117e-01 -8.18406307e-01 -8.13936071e-01 -7.90759409e-01
 -7.55845156e-01 -7.37644859e-01 -7.23706324e-01 -7.10843339e-01
 -7.07732889e-01 -6.99355215e-01 -6.70872739e-01 -6.33161878e-01
 -6.04663290e-01 -5.88574244e-01 -5.70554585e-01 -5.60621444e-01
 -5.49271911e-01 -5.26647741e-01 -5.06414472e-01 -5.01412549e-01
 -4.88881276e-01 -4.77164146e-01 -4.69735273e-01 -4.60250755e-01
 -4.52372455e-01 -4.48482712e-01 -4.44459252e-01 -4.43958395e-01
 -4.42027846e-01 -4.28418470e-01 -4.21892176e-01 -4.17593124e-01
 -4.15956296e-01 -4.13026526e-01 -4.06664031e-01 -4.02283270e-01
 -3.94866459e-01 -3.90265225e-01 -3.89207388e-01 -3.85647932e-01
 -3.76028574e-01 -3.69133518e-01 -3.66485528e-01 -3.61794461e-01
 -3.59873283e-01 -3.57068384e-01 -3.36645086e-01 -3.30388067e-01
 -3.20937280e-01 -3.13369704e-01 -2.90292837e-01 -2.58207667e-01
 -2.52869577e-01 -2.10304987e-01 -9.55329926e-02 -3.48729398e-02
  1.35080649e-02  2.68607114e-02  3.50925311e-02  4.26970841e-02
  4.70112653e-02  5.13178492e-02  5.92286276e-02  6.47389304e-02
  6.78060967e-02  7.06118819e-02  7.36722277e-02  8.09516132e-02
  8.54294787e-02  8.70435513e-02  8.92452981e-02  9.17617865e-02
  1.01235834e-01  1.11056095e-01  1.16098079e-01  1.20694535e-01
  1.23201181e-01  1.25138384e-01  1.30526922e-01  1.33786216e-01
  1.37747371e-01  1.41551830e-01  1.42976626e-01  1.46155163e-01
  1.49531282e-01  1.50608606e-01  1.53736016e-01  1.59513334e-01
  1.65887933e-01  1.71615651e-01  1.74169946e-01  1.79410697e-01
  1.83893210e-01  1.87391239e-01  1.89011059e-01  1.92365989e-01
  1.96046502e-01  1.99262043e-01  2.05182754e-01  2.08510186e-01
  2.11295300e-01  2.16341952e-01  2.17834463e-01  2.31504515e-01
  2.34325085e-01  2.36295500e-01  2.39256282e-01  2.46700178e-01
  2.52840098e-01  2.60582328e-01  2.65409717e-01  2.69190959e-01
  2.73618320e-01  2.76972597e-01  2.81192321e-01  2.83983388e-01
  2.89237012e-01  2.90474429e-01  2.98592856e-01  3.03465096e-01
  3.11084221e-01  3.14705967e-01  3.20353301e-01  3.22434437e-01
  3.28434813e-01  3.30531508e-01  3.33490267e-01  3.39221713e-01
  3.46619829e-01  3.50990158e-01  3.52610934e-01  3.57820014e-01
  3.60970713e-01  3.65854599e-01  3.69908109e-01  3.74856558e-01
  3.78982074e-01  3.85063008e-01  3.87558297e-01  3.91178658e-01
  3.92542010e-01  4.01157944e-01  4.04890754e-01  4.08107429e-01
  4.13617171e-01  4.14031565e-01  4.18156057e-01  4.22770465e-01
  4.24483899e-01  4.28280454e-01  4.29847198e-01  4.30946074e-01
  4.35382829e-01  4.41144086e-01  4.42206938e-01  4.43656132e-01
  4.44515805e-01  4.48724266e-01  4.56439175e-01  4.60253900e-01
  4.63317157e-01  4.66224165e-01  4.69240290e-01  4.71495400e-01
  4.75723790e-01  4.81498961e-01  4.83352625e-01  4.85012575e-01
  4.86347558e-01  4.88834831e-01  4.95562859e-01  4.96539539e-01
  5.02868140e-01  5.03840449e-01  5.08562098e-01  5.10763562e-01
  5.17938642e-01  5.19949097e-01  5.23053490e-01  5.29617129e-01
  5.32693644e-01  5.39068623e-01  5.39638543e-01  5.43711625e-01
  5.59400411e-01  5.65516387e-01  5.71774508e-01  5.77021339e-01
  5.84135021e-01  5.87296552e-01  5.90250783e-01  5.99863287e-01
  6.01639689e-01  6.10013099e-01  6.12100729e-01  6.16664213e-01
  6.22346804e-01  6.30994470e-01  6.32625047e-01  6.36903455e-01
  6.46354886e-01  6.51073758e-01  6.53551891e-01  6.62899825e-01
  6.70507121e-01  6.79605425e-01  6.82063821e-01  6.93513113e-01
  6.96266325e-01  7.03476122e-01  7.04750371e-01  7.13625884e-01
  7.15473896e-01  7.22345767e-01  7.25906097e-01  7.41650004e-01
  7.44165570e-01  7.50381370e-01  7.56398654e-01  7.64962200e-01
  7.67244278e-01  7.78862245e-01  7.79630264e-01  7.83857311e-01
  7.90740285e-01  7.99806098e-01  8.11768736e-01  8.12401518e-01
  8.25830881e-01  8.31104683e-01  8.40919966e-01  8.54115146e-01
  8.61566456e-01  8.74350587e-01  8.80192715e-01  8.81300729e-01
  8.87246395e-01  8.87855569e-01  9.00763705e-01  9.02922486e-01
  9.07921032e-01  9.20035952e-01  9.20639843e-01  9.30530404e-01
  9.35197507e-01  9.49363844e-01  9.57009471e-01  9.63781906e-01
  9.66797317e-01  9.70900862e-01  9.79100569e-01  9.82496621e-01
  9.89044348e-01  9.93411319e-01  9.99468398e-01  1.01649903e+00
  1.01857701e+00  1.03274719e+00  1.03444131e+00  1.03906530e+00
  1.04010951e+00  1.04678995e+00  1.06295643e+00  1.06444948e+00
  1.06802690e+00  1.07564789e+00  1.08350250e+00  1.09068320e+00
  1.09447008e+00  1.10190475e+00  1.10664050e+00  1.12436419e+00
  1.12638562e+00  1.13469832e+00  1.14247665e+00  1.14989058e+00
  1.15660238e+00  1.16694276e+00  1.16951777e+00  1.17727890e+00
  1.18840703e+00  1.20203794e+00  1.20268912e+00  1.20960291e+00
  1.21829062e+00  1.22434704e+00  1.23360985e+00  1.23737762e+00
  1.24214056e+00  1.24628172e+00  1.25851013e+00  1.26587684e+00
  1.26888570e+00  1.28248907e+00  1.28523193e+00  1.29892310e+00
  1.30324707e+00  1.30816966e+00  1.31670570e+00  1.32758742e+00
  1.33433540e+00  1.34225973e+00  1.34786592e+00  1.35059884e+00
  1.35973808e+00  1.36944701e+00  1.38495913e+00  1.39100214e+00
  1.39944877e+00  1.42911187e+00  1.42968289e+00  1.43606706e+00
  1.43977583e+00  1.45326767e+00  1.46357242e+00  1.47865758e+00
  1.48031274e+00  1.49485141e+00  1.49620714e+00  1.50252161e+00
  1.50942391e+00  1.51551208e+00  1.51756816e+00  1.52326905e+00
  1.52603735e+00  1.53061262e+00  1.54252406e+00  1.54622258e+00
  1.54831825e+00  1.55121195e+00  1.55507026e+00  1.56339912e+00
  1.56624515e+00  1.56787621e+00  1.57823290e+00  1.58891171e+00
  1.59282693e+00  1.59687186e+00  1.59745548e+00  1.60675863e+00
  1.60948947e+00  1.61464036e+00  1.61919763e+00  1.62052709e+00
  1.62439271e+00  1.63127084e+00  1.64278172e+00  1.64865203e+00
  1.65329351e+00  1.65871146e+00  1.66336401e+00  1.66689177e+00
  1.67316519e+00  1.67916959e+00  1.69151257e+00  1.69186826e+00
  1.69720568e+00  1.71377978e+00  1.71720304e+00  1.73377142e+00
  1.73794605e+00  1.74268996e+00  1.74727574e+00  1.75074146e+00
  1.76000087e+00  1.76478303e+00  1.78400938e+00  1.78938137e+00
  1.79429839e+00  1.80983865e+00  1.81845862e+00  1.82183391e+00
  1.83190761e+00  1.83909968e+00  1.84939912e+00  1.87126882e+00
  1.87935884e+00  1.88415900e+00  1.89046778e+00  1.89242905e+00
  1.90381018e+00  1.90967736e+00  1.91885370e+00  1.93011700e+00
  1.94158277e+00  1.94747302e+00  1.95482450e+00  1.95620953e+00
  1.97759143e+00  1.98622937e+00  1.99343802e+00  1.99967619e+00
  2.00381816e+00  2.01372743e+00  2.01488525e+00  2.02189301e+00
  2.02997616e+00  2.03919673e+00  2.04446647e+00  2.05740315e+00
  2.06559419e+00  2.06774957e+00  2.07624698e+00  2.08039306e+00
  2.09033617e+00  2.10524645e+00  2.11018152e+00  2.11920630e+00
  2.12903042e+00  2.13596567e+00  2.15087365e+00  2.16118996e+00
  2.16587754e+00  2.17192407e+00  2.17939859e+00  2.18270158e+00
  2.19036528e+00  2.19793887e+00  2.21912471e+00  2.23336158e+00
  2.23660150e+00  2.24326945e+00  2.24889538e+00  2.25776026e+00
  2.27172355e+00  2.28399001e+00  2.29471744e+00  2.29900901e+00
  2.30699681e+00  2.30781199e+00  2.31195621e+00  2.31725647e+00
  2.32394665e+00  2.33506556e+00  2.34136354e+00  2.35180157e+00
  2.35386444e+00  2.36700661e+00  2.37406021e+00  2.38311441e+00
  2.38389973e+00  2.38635360e+00  2.39321792e+00  2.39690330e+00
  2.41324322e+00  2.42267619e+00  2.43029379e+00  2.43564038e+00
  2.43794726e+00  2.45145791e+00  2.46696291e+00  2.47562695e+00
  2.48320625e+00  2.49189110e+00  2.49477718e+00  2.49768281e+00
  2.50156406e+00  2.51257722e+00  2.51498986e+00  2.51575942e+00
  2.51989518e+00  2.53013091e+00  2.53296635e+00  2.53713728e+00
  2.54310410e+00  2.55154302e+00  2.55794330e+00  2.56284947e+00
  2.57668090e+00  2.58333852e+00  2.58712121e+00  2.58884458e+00
  2.59358291e+00  2.59554479e+00  2.60336889e+00  2.60890544e+00
  2.61398859e+00  2.62571597e+00  2.63267002e+00  2.63523945e+00
  2.64016504e+00  2.64639888e+00  2.65717213e+00  2.66428744e+00
  2.67473959e+00  2.67816781e+00  2.68309939e+00  2.69112530e+00
  2.70347962e+00  2.70738529e+00  2.71246571e+00  2.71893273e+00
  2.72903497e+00  2.73090378e+00  2.73945133e+00  2.74182519e+00
  2.74371865e+00  2.75729834e+00  2.76286900e+00  2.77170431e+00
  2.77677070e+00  2.77925207e+00  2.78399173e+00  2.79447247e+00
  2.80776996e+00  2.81792963e+00  2.82445370e+00  2.83118544e+00
  2.83397940e+00  2.83952428e+00  2.84531375e+00  2.85000612e+00
  2.85389749e+00  2.85910494e+00  2.86856714e+00  2.87824284e+00
  2.88924816e+00  2.89135047e+00  2.89724129e+00  2.90122884e+00
  2.90941697e+00  2.91507270e+00  2.91928334e+00  2.92586101e+00
  2.94097976e+00  2.94422287e+00  2.95741278e+00  2.96322196e+00
  2.97386102e+00  2.98592577e+00  2.99386185e+00  2.99842861e+00
  3.00650365e+00  3.02255345e+00  3.03033672e+00  3.03650315e+00
  3.03831807e+00  3.04151268e+00  3.05314021e+00  3.06013823e+00
  3.06507140e+00  3.07174605e+00  3.07324065e+00  3.08222002e+00
  3.09001950e+00  3.09258245e+00  3.09820025e+00  3.10647940e+00
  3.10946224e+00  3.12196679e+00  3.13060930e+00  3.13459796e+00
  3.14118439e+00  3.14536797e+00  3.15252775e+00  3.16188468e+00
  3.16313762e+00  3.16937973e+00  3.18209424e+00  3.18399236e+00
  3.19048882e+00  3.19741875e+00  3.20199020e+00  3.20312931e+00
  3.20801992e+00  3.21202119e+00  3.21571901e+00  3.22099000e+00
  3.22720611e+00  3.24141300e+00  3.24486353e+00  3.24962710e+00
  3.25311793e+00  3.25691439e+00  3.26139930e+00  3.26617661e+00
  3.26910638e+00  3.27553090e+00  3.28038599e+00  3.28309585e+00
  3.28848757e+00  3.29476513e+00  3.29954304e+00  3.30393757e+00
  3.31552988e+00  3.32049211e+00  3.32685577e+00  3.32913829e+00
  3.33691983e+00  3.34398150e+00  3.34529540e+00  3.34762317e+00
  3.35555123e+00  3.35973876e+00  3.36112568e+00  3.36839284e+00
  3.37372390e+00  3.38140050e+00  3.38877314e+00  3.39275168e+00
  3.39553265e+00  3.40535535e+00  3.41059890e+00  3.41327063e+00
  3.42212633e+00  3.43060397e+00  3.43297961e+00  3.44677326e+00
  3.45410817e+00  3.45711297e+00  3.46111347e+00  3.46905466e+00
  3.48827282e+00  3.49643197e+00  3.49965950e+00  3.50720457e+00
  3.51263566e+00  3.51714860e+00  3.52184705e+00  3.52559223e+00
  3.54261928e+00  3.54875124e+00  3.55386105e+00  3.56486169e+00
  3.57343576e+00  3.58527707e+00  3.59167872e+00  3.59863812e+00
  3.60412920e+00  3.61188523e+00  3.61808283e+00  3.62162657e+00
  3.63556025e+00  3.64729940e+00  3.65307472e+00  3.66055368e+00
  3.67909979e+00  3.68391383e+00  3.69137994e+00  3.70166526e+00
  3.70821148e+00  3.71438993e+00  3.72755397e+00  3.73796013e+00
  3.75086841e+00  3.75346553e+00  3.75658419e+00  3.77449268e+00
  3.78167464e+00  3.78636654e+00  3.78842810e+00  3.79917231e+00
  3.82594140e+00  3.82819558e+00  3.83858041e+00  3.84570979e+00
  3.85578654e+00  3.87033947e+00  3.88715882e+00  3.88943940e+00
  3.91133758e+00  3.91713431e+00  3.92174283e+00  3.92981050e+00
  3.93970374e+00  3.95068627e+00  3.96117393e+00  3.96595985e+00
  3.97158580e+00  3.98657292e+00  4.01337017e+00  4.01633098e+00
  4.02004202e+00  4.04266698e+00  4.04863348e+00  4.07253721e+00
  4.08674829e+00  4.09546934e+00  4.10782642e+00  4.12743075e+00
  4.13313197e+00  4.13455226e+00  4.14127071e+00  4.16561183e+00
  4.16904363e+00  4.18007690e+00  4.18717847e+00  4.21722021e+00
  4.22142467e+00  4.23446245e+00  4.23733028e+00  4.25230957e+00
  4.25807384e+00  4.26911489e+00  4.27231721e+00  4.27837310e+00
  4.29199350e+00  4.29945868e+00  4.30440538e+00  4.33025323e+00
  4.34106970e+00  4.34567510e+00  4.35731987e+00  4.38121894e+00
  4.39593308e+00  4.40342084e+00  4.41091337e+00  4.42177525e+00
  4.43392342e+00  4.44136478e+00  4.45140342e+00  4.45916919e+00
  4.47299344e+00  4.47606706e+00  4.48491073e+00  4.49109499e+00
  4.50157959e+00  4.52650060e+00  4.53255576e+00  4.54033695e+00
  4.54763789e+00  4.55027812e+00  4.58919119e+00  4.59491269e+00
  4.61442373e+00  4.62857382e+00  4.64054548e+00  4.65412687e+00
  4.67531984e+00  4.69414359e+00  4.70289895e+00  4.72777777e+00
  4.73226920e+00  4.75308754e+00  4.79229818e+00  4.79266460e+00
  4.82920778e+00  4.84986221e+00  4.86790805e+00  4.89004277e+00
  4.90305199e+00  4.91959715e+00  4.95487864e+00  4.96567788e+00
  4.99289569e+00  5.00822852e+00  5.05050018e+00  5.07938015e+00
  5.10364435e+00  5.12676218e+00  5.12796668e+00  5.14022284e+00
  5.17550993e+00  5.21080282e+00  5.21678275e+00  5.23985247e+00
  5.26706919e+00  5.29532029e+00  5.32470560e+00  5.36195400e+00
  5.45575709e+00  5.53861915e+00  5.56011663e+00  5.57516216e+00
  5.63163213e+00  5.70974108e+00  6.07449561e+00  6.33517059e+00
  6.37810533e+00  6.45759561e+00  6.50423239e+00  6.82289862e+00
  6.99554848e+00  7.07934198e+00  2.23805349e+01  2.24472498e+01
  2.24496207e+01  2.24645473e+01  2.24952107e+01  2.25196165e+01
  2.25724313e+01  2.25843420e+01  2.26241444e+01  2.26437284e+01
  2.26586140e+01  2.27175101e+01  2.27626461e+01  2.27913571e+01
  2.28392815e+01  2.28651178e+01  2.29087094e+01  2.30732024e+01
  2.31468226e+01  2.33059789e+01  4.39459112e+01]
nelec by numeric integration = 156.00012455771167
    CPU time for vxc     69.20 sec, wall time      4.57 sec
    CPU time for df vj and vk    148.37 sec, wall time     12.03 sec
E1 = -4169.209049599319  Ecoul = 1923.52590526488  Exc = -126.45331291993777
cycle= 3 E= -853.422822016565  delta_E= -2.26e-10  |g|= 1.72e-06  |ddm|= 2.84e-05
    CPU time for cycle= 3    222.18 sec, wall time     17.64 sec
  HOMO = -0.210305021426387  LUMO = -0.0955330236338568
  mo_energy =
[-1.91846162e+01 -1.02970307e+01 -1.02692556e+01 -1.02598923e+01
 -1.02509181e+01 -1.02492607e+01 -1.02439981e+01 -1.02431664e+01
 -1.02416059e+01 -1.02398316e+01 -1.02372861e+01 -1.02369315e+01
 -1.02363858e+01 -1.02351911e+01 -1.02322386e+01 -1.02306360e+01
 -1.02246950e+01 -1.02232503e+01 -1.02227281e+01 -1.02198906e+01
 -1.02157442e+01 -1.04897477e+00 -8.86039704e-01 -8.73352121e-01
 -8.56536142e-01 -8.18406317e-01 -8.13936114e-01 -7.90759436e-01
 -7.55845195e-01 -7.37644837e-01 -7.23706376e-01 -7.10843365e-01
 -7.07732938e-01 -6.99355222e-01 -6.70872767e-01 -6.33161908e-01
 -6.04663312e-01 -5.88574277e-01 -5.70554619e-01 -5.60621475e-01
 -5.49271948e-01 -5.26647786e-01 -5.06414499e-01 -5.01412553e-01
 -4.88881287e-01 -4.77164168e-01 -4.69735290e-01 -4.60250786e-01
 -4.52372512e-01 -4.48482672e-01 -4.44459290e-01 -4.43958447e-01
 -4.42027854e-01 -4.28418541e-01 -4.21892199e-01 -4.17593133e-01
 -4.15956320e-01 -4.13026551e-01 -4.06664062e-01 -4.02283258e-01
 -3.94866546e-01 -3.90265259e-01 -3.89207427e-01 -3.85647948e-01
 -3.76028582e-01 -3.69133522e-01 -3.66485546e-01 -3.61794492e-01
 -3.59873332e-01 -3.57068428e-01 -3.36645110e-01 -3.30388097e-01
 -3.20937310e-01 -3.13369728e-01 -2.90292863e-01 -2.58207760e-01
 -2.52869596e-01 -2.10305021e-01 -9.55330236e-02 -3.48729787e-02
  1.35080378e-02  2.68606927e-02  3.50925277e-02  4.26970566e-02
  4.70112536e-02  5.13178279e-02  5.92285818e-02  6.47389353e-02
  6.78061149e-02  7.06118620e-02  7.36722298e-02  8.09516074e-02
  8.54294686e-02  8.70435431e-02  8.92452717e-02  9.17617606e-02
  1.01235837e-01  1.11056091e-01  1.16098081e-01  1.20694533e-01
  1.23201182e-01  1.25138383e-01  1.30526909e-01  1.33786204e-01
  1.37747361e-01  1.41551816e-01  1.42976610e-01  1.46155156e-01
  1.49531279e-01  1.50608588e-01  1.53736007e-01  1.59513306e-01
  1.65887914e-01  1.71615629e-01  1.74169931e-01  1.79410696e-01
  1.83893194e-01  1.87391226e-01  1.89011039e-01  1.92365985e-01
  1.96046512e-01  1.99262032e-01  2.05182727e-01  2.08510170e-01
  2.11295283e-01  2.16341944e-01  2.17834437e-01  2.31504497e-01
  2.34325088e-01  2.36295488e-01  2.39256272e-01  2.46700170e-01
  2.52840112e-01  2.60582310e-01  2.65409695e-01  2.69190946e-01
  2.73618298e-01  2.76972580e-01  2.81192300e-01  2.83983380e-01
  2.89236992e-01  2.90474415e-01  2.98592837e-01  3.03465074e-01
  3.11084204e-01  3.14705934e-01  3.20353283e-01  3.22434428e-01
  3.28434794e-01  3.30531502e-01  3.33490250e-01  3.39221685e-01
  3.46619817e-01  3.50990145e-01  3.52610937e-01  3.57820002e-01
  3.60970702e-01  3.65854591e-01  3.69908096e-01  3.74856530e-01
  3.78982057e-01  3.85062967e-01  3.87558292e-01  3.91178646e-01
  3.92542007e-01  4.01157939e-01  4.04890734e-01  4.08107427e-01
  4.13617144e-01  4.14031554e-01  4.18156036e-01  4.22770446e-01
  4.24483891e-01  4.28280446e-01  4.29847192e-01  4.30946061e-01
  4.35382814e-01  4.41144077e-01  4.42206925e-01  4.43656104e-01
  4.44515781e-01  4.48724267e-01  4.56439162e-01  4.60253887e-01
  4.63317139e-01  4.66224159e-01  4.69240273e-01  4.71495394e-01
  4.75723783e-01  4.81498944e-01  4.83352614e-01  4.85012565e-01
  4.86347546e-01  4.88834812e-01  4.95562837e-01  4.96539536e-01
  5.02868121e-01  5.03840434e-01  5.08562081e-01  5.10763549e-01
  5.17938623e-01  5.19949076e-01  5.23053473e-01  5.29617109e-01
  5.32693629e-01  5.39068600e-01  5.39638521e-01  5.43711603e-01
  5.59400395e-01  5.65516360e-01  5.71774483e-01  5.77021311e-01
  5.84134994e-01  5.87296540e-01  5.90250763e-01  5.99863273e-01
  6.01639675e-01  6.10013103e-01  6.12100718e-01  6.16664198e-01
  6.22346788e-01  6.30994462e-01  6.32625021e-01  6.36903445e-01
  6.46354871e-01  6.51073729e-01  6.53551882e-01  6.62899814e-01
  6.70507091e-01  6.79605396e-01  6.82063808e-01  6.93513083e-01
  6.96266320e-01  7.03476097e-01  7.04750336e-01  7.13625858e-01
  7.15473875e-01  7.22345729e-01  7.25906095e-01  7.41649986e-01
  7.44165539e-01  7.50381352e-01  7.56398630e-01  7.64962184e-01
  7.67244255e-01  7.78862217e-01  7.79630241e-01  7.83857293e-01
  7.90740274e-01  7.99806083e-01  8.11768711e-01  8.12401498e-01
  8.25830868e-01  8.31104658e-01  8.40919949e-01  8.54115122e-01
  8.61566433e-01  8.74350561e-01  8.80192712e-01  8.81300711e-01
  8.87246380e-01  8.87855563e-01  9.00763682e-01  9.02922473e-01
  9.07921014e-01  9.20035936e-01  9.20639833e-01  9.30530380e-01
  9.35197480e-01  9.49363827e-01  9.57009448e-01  9.63781876e-01
  9.66797319e-01  9.70900853e-01  9.79100539e-01  9.82496602e-01
  9.89044320e-01  9.93411299e-01  9.99468371e-01  1.01649900e+00
  1.01857699e+00  1.03274717e+00  1.03444128e+00  1.03906531e+00
  1.04010948e+00  1.04678993e+00  1.06295640e+00  1.06444947e+00
  1.06802689e+00  1.07564786e+00  1.08350247e+00  1.09068318e+00
  1.09447005e+00  1.10190473e+00  1.10664048e+00  1.12436417e+00
  1.12638561e+00  1.13469831e+00  1.14247663e+00  1.14989055e+00
  1.15660235e+00  1.16694273e+00  1.16951776e+00  1.17727887e+00
  1.18840702e+00  1.20203792e+00  1.20268910e+00  1.20960289e+00
  1.21829060e+00  1.22434703e+00  1.23360983e+00  1.23737760e+00
  1.24214056e+00  1.24628169e+00  1.25851011e+00  1.26587682e+00
  1.26888569e+00  1.28248904e+00  1.28523191e+00  1.29892307e+00
  1.30324704e+00  1.30816964e+00  1.31670568e+00  1.32758740e+00
  1.33433541e+00  1.34225971e+00  1.34786590e+00  1.35059882e+00
  1.35973808e+00  1.36944696e+00  1.38495910e+00  1.39100211e+00
  1.39944875e+00  1.42911186e+00  1.42968286e+00  1.43606704e+00
  1.43977583e+00  1.45326764e+00  1.46357236e+00  1.47865756e+00
  1.48031272e+00  1.49485140e+00  1.49620711e+00  1.50252159e+00
  1.50942389e+00  1.51551209e+00  1.51756815e+00  1.52326903e+00
  1.52603735e+00  1.53061261e+00  1.54252402e+00  1.54622256e+00
  1.54831822e+00  1.55121193e+00  1.55507023e+00  1.56339909e+00
  1.56624512e+00  1.56787618e+00  1.57823286e+00  1.58891170e+00
  1.59282691e+00  1.59687187e+00  1.59745546e+00  1.60675862e+00
  1.60948944e+00  1.61464034e+00  1.61919763e+00  1.62052706e+00
  1.62439269e+00  1.63127082e+00  1.64278171e+00  1.64865202e+00
  1.65329350e+00  1.65871144e+00  1.66336398e+00  1.66689173e+00
  1.67316517e+00  1.67916956e+00  1.69151253e+00  1.69186820e+00
  1.69720564e+00  1.71377976e+00  1.71720302e+00  1.73377139e+00
  1.73794603e+00  1.74268996e+00  1.74727570e+00  1.75074145e+00
  1.76000086e+00  1.76478300e+00  1.78400937e+00  1.78938134e+00
  1.79429836e+00  1.80983861e+00  1.81845859e+00  1.82183387e+00
  1.83190761e+00  1.83909964e+00  1.84939909e+00  1.87126879e+00
  1.87935881e+00  1.88415899e+00  1.89046777e+00  1.89242911e+00
  1.90381015e+00  1.90967732e+00  1.91885366e+00  1.93011696e+00
  1.94158273e+00  1.94747296e+00  1.95482448e+00  1.95620949e+00
  1.97759144e+00  1.98622935e+00  1.99343801e+00  1.99967617e+00
  2.00381816e+00  2.01372744e+00  2.01488525e+00  2.02189298e+00
  2.02997615e+00  2.03919671e+00  2.04446645e+00  2.05740312e+00
  2.06559415e+00  2.06774956e+00  2.07624696e+00  2.08039304e+00
  2.09033614e+00  2.10524643e+00  2.11018149e+00  2.11920629e+00
  2.12903041e+00  2.13596566e+00  2.15087362e+00  2.16118992e+00
  2.16587749e+00  2.17192405e+00  2.17939858e+00  2.18270158e+00
  2.19036526e+00  2.19793886e+00  2.21912467e+00  2.23336156e+00
  2.23660145e+00  2.24326944e+00  2.24889535e+00  2.25776022e+00
  2.27172352e+00  2.28398997e+00  2.29471742e+00  2.29900899e+00
  2.30699681e+00  2.30781201e+00  2.31195620e+00  2.31725642e+00
  2.32394662e+00  2.33506553e+00  2.34136353e+00  2.35180156e+00
  2.35386442e+00  2.36700661e+00  2.37406019e+00  2.38311438e+00
  2.38389971e+00  2.38635359e+00  2.39321788e+00  2.39690327e+00
  2.41324321e+00  2.42267619e+00  2.43029378e+00  2.43564037e+00
  2.43794724e+00  2.45145787e+00  2.46696289e+00  2.47562693e+00
  2.48320621e+00  2.49189109e+00  2.49477717e+00  2.49768282e+00
  2.50156407e+00  2.51257719e+00  2.51498981e+00  2.51575940e+00
  2.51989516e+00  2.53013090e+00  2.53296635e+00  2.53713729e+00
  2.54310410e+00  2.55154299e+00  2.55794327e+00  2.56284944e+00
  2.57668085e+00  2.58333850e+00  2.58712119e+00  2.58884456e+00
  2.59358288e+00  2.59554476e+00  2.60336887e+00  2.60890541e+00
  2.61398857e+00  2.62571593e+00  2.63267001e+00  2.63523943e+00
  2.64016504e+00  2.64639885e+00  2.65717210e+00  2.66428742e+00
  2.67473956e+00  2.67816779e+00  2.68309937e+00  2.69112529e+00
  2.70347959e+00  2.70738536e+00  2.71246569e+00  2.71893271e+00
  2.72903495e+00  2.73090374e+00  2.73945130e+00  2.74182517e+00
  2.74371862e+00  2.75729832e+00  2.76286895e+00  2.77170429e+00
  2.77677070e+00  2.77925204e+00  2.78399171e+00  2.79447245e+00
  2.80776991e+00  2.81792960e+00  2.82445369e+00  2.83118540e+00
  2.83397937e+00  2.83952424e+00  2.84531374e+00  2.85000610e+00
  2.85389748e+00  2.85910490e+00  2.86856710e+00  2.87824284e+00
  2.88924814e+00  2.89135045e+00  2.89724126e+00  2.90122881e+00
  2.90941694e+00  2.91507266e+00  2.91928330e+00  2.92586096e+00
  2.94097973e+00  2.94422284e+00  2.95741274e+00  2.96322194e+00
  2.97386100e+00  2.98592575e+00  2.99386181e+00  2.99842856e+00
  3.00650363e+00  3.02255342e+00  3.03033670e+00  3.03650313e+00
  3.03831808e+00  3.04151270e+00  3.05314017e+00  3.06013820e+00
  3.06507136e+00  3.07174602e+00  3.07324060e+00  3.08221998e+00
  3.09001949e+00  3.09258243e+00  3.09820024e+00  3.10647935e+00
  3.10946221e+00  3.12196680e+00  3.13060928e+00  3.13459791e+00
  3.14118434e+00  3.14536795e+00  3.15252768e+00  3.16188466e+00
  3.16313762e+00  3.16937972e+00  3.18209421e+00  3.18399234e+00
  3.19048881e+00  3.19741872e+00  3.20199020e+00  3.20312927e+00
  3.20801989e+00  3.21202117e+00  3.21571896e+00  3.22098997e+00
  3.22720608e+00  3.24141296e+00  3.24486350e+00  3.24962708e+00
  3.25311792e+00  3.25691436e+00  3.26139930e+00  3.26617660e+00
  3.26910637e+00  3.27553088e+00  3.28038596e+00  3.28309583e+00
  3.28848753e+00  3.29476510e+00  3.29954305e+00  3.30393755e+00
  3.31552984e+00  3.32049206e+00  3.32685574e+00  3.32913827e+00
  3.33691979e+00  3.34398146e+00  3.34529539e+00  3.34762314e+00
  3.35555120e+00  3.35973877e+00  3.36112567e+00  3.36839281e+00
  3.37372386e+00  3.38140048e+00  3.38877311e+00  3.39275165e+00
  3.39553262e+00  3.40535532e+00  3.41059887e+00  3.41327060e+00
  3.42212630e+00  3.43060394e+00  3.43297957e+00  3.44677324e+00
  3.45410815e+00  3.45711295e+00  3.46111345e+00  3.46905465e+00
  3.48827280e+00  3.49643194e+00  3.49965947e+00  3.50720455e+00
  3.51263563e+00  3.51714857e+00  3.52184702e+00  3.52559222e+00
  3.54261924e+00  3.54875122e+00  3.55386103e+00  3.56486168e+00
  3.57343573e+00  3.58527706e+00  3.59167869e+00  3.59863810e+00
  3.60412917e+00  3.61188519e+00  3.61808280e+00  3.62162653e+00
  3.63556021e+00  3.64729937e+00  3.65307469e+00  3.66055364e+00
  3.67909976e+00  3.68391381e+00  3.69137990e+00  3.70166522e+00
  3.70821147e+00  3.71438991e+00  3.72755397e+00  3.73796010e+00
  3.75086838e+00  3.75346550e+00  3.75658415e+00  3.77449265e+00
  3.78167463e+00  3.78636651e+00  3.78842805e+00  3.79917228e+00
  3.82594137e+00  3.82819556e+00  3.83858036e+00  3.84570978e+00
  3.85578650e+00  3.87033943e+00  3.88715879e+00  3.88943943e+00
  3.91133755e+00  3.91713435e+00  3.92174280e+00  3.92981046e+00
  3.93970368e+00  3.95068625e+00  3.96117393e+00  3.96595982e+00
  3.97158575e+00  3.98657290e+00  4.01337014e+00  4.01633097e+00
  4.02004200e+00  4.04266696e+00  4.04863345e+00  4.07253716e+00
  4.08674827e+00  4.09546931e+00  4.10782639e+00  4.12743073e+00
  4.13313195e+00  4.13455224e+00  4.14127068e+00  4.16561181e+00
  4.16904359e+00  4.18007690e+00  4.18717847e+00  4.21722018e+00
  4.22142465e+00  4.23446239e+00  4.23733028e+00  4.25230952e+00
  4.25807381e+00  4.26911483e+00  4.27231717e+00  4.27837306e+00
  4.29199348e+00  4.29945862e+00  4.30440537e+00  4.33025324e+00
  4.34106967e+00  4.34567509e+00  4.35731980e+00  4.38121892e+00
  4.39593305e+00  4.40342084e+00  4.41091333e+00  4.42177522e+00
  4.43392340e+00  4.44136475e+00  4.45140343e+00  4.45916921e+00
  4.47299341e+00  4.47606703e+00  4.48491071e+00  4.49109498e+00
  4.50157957e+00  4.52650058e+00  4.53255572e+00  4.54033692e+00
  4.54763785e+00  4.55027809e+00  4.58919118e+00  4.59491265e+00
  4.61442372e+00  4.62857379e+00  4.64054545e+00  4.65412683e+00
  4.67531980e+00  4.69414354e+00  4.70289893e+00  4.72777774e+00
  4.73226915e+00  4.75308751e+00  4.79229817e+00  4.79266458e+00
  4.82920774e+00  4.84986218e+00  4.86790802e+00  4.89004274e+00
  4.90305196e+00  4.91959717e+00  4.95487859e+00  4.96567782e+00
  4.99289567e+00  5.00822849e+00  5.05050020e+00  5.07938013e+00
  5.10364432e+00  5.12676217e+00  5.12796668e+00  5.14022279e+00
  5.17550989e+00  5.21080275e+00  5.21678263e+00  5.23985238e+00
  5.26706911e+00  5.29532022e+00  5.32470559e+00  5.36195397e+00
  5.45575709e+00  5.53861910e+00  5.56011651e+00  5.57516212e+00
  5.63163205e+00  5.70974099e+00  6.07449547e+00  6.33517044e+00
  6.37810518e+00  6.45759548e+00  6.50423224e+00  6.82289848e+00
  6.99554834e+00  7.07934183e+00  2.23805348e+01  2.24472498e+01
  2.24496207e+01  2.24645472e+01  2.24952106e+01  2.25196165e+01
  2.25724313e+01  2.25843420e+01  2.26241443e+01  2.26437283e+01
  2.26586140e+01  2.27175100e+01  2.27626460e+01  2.27913571e+01
  2.28392815e+01  2.28651177e+01  2.29087093e+01  2.30732024e+01
  2.31468225e+01  2.33059789e+01  4.39459110e+01]
nelec by numeric integration = 156.00012455769715
    CPU time for vxc     87.00 sec, wall time      5.89 sec
    CPU time for df vj and vk    148.50 sec, wall time     12.19 sec
E1 = -4169.209056055683  Ecoul = 1923.5259121992287  Exc = -126.45331339792358
cycle= 4 E= -853.422822016566  delta_E= -9.09e-13  |g|= 2.28e-07  |ddm|= 2.29e-06
    CPU time for cycle= 4    240.42 sec, wall time     19.29 sec
  HOMO = -0.210305045461406  LUMO = -0.0955330538647564
  mo_energy =
[-1.91846162e+01 -1.02970309e+01 -1.02692557e+01 -1.02598923e+01
 -1.02509182e+01 -1.02492607e+01 -1.02439982e+01 -1.02431665e+01
 -1.02416059e+01 -1.02398317e+01 -1.02372861e+01 -1.02369316e+01
 -1.02363858e+01 -1.02351911e+01 -1.02322386e+01 -1.02306360e+01
 -1.02246950e+01 -1.02232503e+01 -1.02227282e+01 -1.02198906e+01
 -1.02157442e+01 -1.04897480e+00 -8.86039719e-01 -8.73352166e-01
 -8.56536174e-01 -8.18406338e-01 -8.13936138e-01 -7.90759466e-01
 -7.55845214e-01 -7.37644873e-01 -7.23706397e-01 -7.10843387e-01
 -7.07732946e-01 -6.99355240e-01 -6.70872800e-01 -6.33161932e-01
 -6.04663335e-01 -5.88574294e-01 -5.70554645e-01 -5.60621502e-01
 -5.49271967e-01 -5.26647802e-01 -5.06414518e-01 -5.01412586e-01
 -4.88881312e-01 -4.77164190e-01 -4.69735309e-01 -4.60250806e-01
 -4.52372530e-01 -4.48482708e-01 -4.44459299e-01 -4.43958455e-01
 -4.42027869e-01 -4.28418560e-01 -4.21892224e-01 -4.17593156e-01
 -4.15956337e-01 -4.13026566e-01 -4.06664077e-01 -4.02283283e-01
 -3.94866574e-01 -3.90265278e-01 -3.89207449e-01 -3.85647962e-01
 -3.76028606e-01 -3.69133541e-01 -3.66485568e-01 -3.61794507e-01
 -3.59873346e-01 -3.57068456e-01 -3.36645122e-01 -3.30388112e-01
 -3.20937328e-01 -3.13369743e-01 -2.90292888e-01 -2.58207775e-01
 -2.52869618e-01 -2.10305045e-01 -9.55330539e-02 -3.48730084e-02
  1.35080127e-02  2.68606909e-02  3.50925205e-02  4.26970397e-02
  4.70112428e-02  5.13178198e-02  5.92285757e-02  6.47389219e-02
  6.78060838e-02  7.06118574e-02  7.36722223e-02  8.09515956e-02
  8.54294646e-02  8.70435377e-02  8.92452686e-02  9.17617579e-02
  1.01235826e-01  1.11056085e-01  1.16098074e-01  1.20694521e-01
  1.23201173e-01  1.25138372e-01  1.30526904e-01  1.33786199e-01
  1.37747350e-01  1.41551811e-01  1.42976605e-01  1.46155147e-01
  1.49531269e-01  1.50608582e-01  1.53736001e-01  1.59513304e-01
  1.65887909e-01  1.71615623e-01  1.74169927e-01  1.79410687e-01
  1.83893184e-01  1.87391211e-01  1.89011032e-01  1.92365970e-01
  1.96046488e-01  1.99262024e-01  2.05182720e-01  2.08510160e-01
  2.11295274e-01  2.16341933e-01  2.17834424e-01  2.31504479e-01
  2.34325071e-01  2.36295479e-01  2.39256258e-01  2.46700158e-01
  2.52840088e-01  2.60582301e-01  2.65409684e-01  2.69190929e-01
  2.73618287e-01  2.76972569e-01  2.81192288e-01  2.83983371e-01
  2.89236981e-01  2.90474401e-01  2.98592831e-01  3.03465063e-01
  3.11084190e-01  3.14705927e-01  3.20353274e-01  3.22434415e-01
  3.28434780e-01  3.30531480e-01  3.33490236e-01  3.39221676e-01
  3.46619806e-01  3.50990132e-01  3.52610921e-01  3.57819990e-01
  3.60970690e-01  3.65854574e-01  3.69908079e-01  3.74856517e-01
  3.78982048e-01  3.85062949e-01  3.87558278e-01  3.91178637e-01
  3.92541995e-01  4.01157924e-01  4.04890726e-01  4.08107414e-01
  4.13617135e-01  4.14031545e-01  4.18156025e-01  4.22770440e-01
  4.24483882e-01  4.28280431e-01  4.29847179e-01  4.30946045e-01
  4.35382805e-01  4.41144063e-01  4.42206915e-01  4.43656097e-01
  4.44515775e-01  4.48724256e-01  4.56439151e-01  4.60253877e-01
  4.63317128e-01  4.66224144e-01  4.69240263e-01  4.71495384e-01
  4.75723765e-01  4.81498938e-01  4.83352603e-01  4.85012552e-01
  4.86347534e-01  4.88834803e-01  4.95562829e-01  4.96539516e-01
  5.02868108e-01  5.03840418e-01  5.08562070e-01  5.10763538e-01
  5.17938610e-01  5.19949070e-01  5.23053465e-01  5.29617091e-01
  5.32693615e-01  5.39068592e-01  5.39638511e-01  5.43711594e-01
  5.59400381e-01  5.65516352e-01  5.71774475e-01  5.77021299e-01
  5.84134984e-01  5.87296527e-01  5.90250749e-01  5.99863260e-01
  6.01639662e-01  6.10013080e-01  6.12100703e-01  6.16664180e-01
  6.22346773e-01  6.30994445e-01  6.32625007e-01  6.36903430e-01
  6.46354853e-01  6.51073717e-01  6.53551865e-01  6.62899798e-01
  6.70507079e-01  6.79605379e-01  6.82063791e-01  6.93513072e-01
  6.96266304e-01  7.03476087e-01  7.04750318e-01  7.13625847e-01
  7.15473859e-01  7.22345719e-01  7.25906073e-01  7.41649973e-01
  7.44165522e-01  7.50381329e-01  7.56398621e-01  7.64962168e-01
  7.67244237e-01  7.78862205e-01  7.79630232e-01  7.83857280e-01
  7.90740262e-01  7.99806067e-01  8.11768700e-01  8.12401488e-01
  8.25830853e-01  8.31104646e-01  8.40919934e-01  8.54115113e-01
  8.61566420e-01  8.74350545e-01  8.80192689e-01  8.81300692e-01
  8.87246365e-01  8.87855549e-01  9.00763669e-01  9.02922459e-01
  9.07920999e-01  9.20035921e-01  9.20639814e-01  9.30530367e-01
  9.35197467e-01  9.49363808e-01  9.57009436e-01  9.63781860e-01
  9.66797298e-01  9.70900833e-01  9.79100532e-01  9.82496587e-01
  9.89044304e-01  9.93411278e-01  9.99468359e-01  1.01649899e+00
  1.01857698e+00  1.03274716e+00  1.03444127e+00  1.03906528e+00
  1.04010947e+00  1.04678991e+00  1.06295639e+00  1.06444945e+00
  1.06802687e+00  1.07564786e+00  1.08350246e+00  1.09068317e+00
  1.09447004e+00  1.10190471e+00  1.10664046e+00  1.12436415e+00
  1.12638559e+00  1.13469829e+00  1.14247661e+00  1.14989054e+00
  1.15660233e+00  1.16694272e+00  1.16951774e+00  1.17727886e+00
  1.18840700e+00  1.20203791e+00  1.20268908e+00  1.20960288e+00
  1.21829059e+00  1.22434701e+00  1.23360982e+00  1.23737758e+00
  1.24214054e+00  1.24628167e+00  1.25851009e+00  1.26587681e+00
  1.26888567e+00  1.28248902e+00  1.28523190e+00  1.29892306e+00
  1.30324702e+00  1.30816962e+00  1.31670566e+00  1.32758738e+00
  1.33433538e+00  1.34225969e+00  1.34786588e+00  1.35059880e+00
  1.35973806e+00  1.36944695e+00  1.38495908e+00  1.39100210e+00
  1.39944874e+00  1.42911181e+00  1.42968285e+00  1.43606702e+00
  1.43977580e+00  1.45326762e+00  1.46357232e+00  1.47865754e+00
  1.48031270e+00  1.49485138e+00  1.49620709e+00  1.50252157e+00
  1.50942388e+00  1.51551207e+00  1.51756813e+00  1.52326902e+00
  1.52603734e+00  1.53061260e+00  1.54252401e+00  1.54622254e+00
  1.54831820e+00  1.55121191e+00  1.55507022e+00  1.56339907e+00
  1.56624511e+00  1.56787616e+00  1.57823285e+00  1.58891168e+00
  1.59282690e+00  1.59687184e+00  1.59745544e+00  1.60675861e+00
  1.60948943e+00  1.61464033e+00  1.61919761e+00  1.62052704e+00
  1.62439266e+00  1.63127081e+00  1.64278170e+00  1.64865201e+00
  1.65329347e+00  1.65871143e+00  1.66336397e+00  1.66689173e+00
  1.67316516e+00  1.67916954e+00  1.69151251e+00  1.69186818e+00
  1.69720563e+00  1.71377974e+00  1.71720300e+00  1.73377137e+00
  1.73794601e+00  1.74268994e+00  1.74727569e+00  1.75074142e+00
  1.76000084e+00  1.76478298e+00  1.78400935e+00  1.78938132e+00
  1.79429835e+00  1.80983860e+00  1.81845857e+00  1.82183386e+00
  1.83190758e+00  1.83909962e+00  1.84939907e+00  1.87126877e+00
  1.87935880e+00  1.88415898e+00  1.89046775e+00  1.89242907e+00
  1.90381013e+00  1.90967731e+00  1.91885364e+00  1.93011695e+00
  1.94158272e+00  1.94747295e+00  1.95482446e+00  1.95620948e+00
  1.97759142e+00  1.98622934e+00  1.99343799e+00  1.99967615e+00
  2.00381813e+00  2.01372742e+00  2.01488523e+00  2.02189297e+00
  2.02997612e+00  2.03919669e+00  2.04446643e+00  2.05740310e+00
  2.06559413e+00  2.06774955e+00  2.07624694e+00  2.08039303e+00
  2.09033612e+00  2.10524641e+00  2.11018148e+00  2.11920627e+00
  2.12903039e+00  2.13596565e+00  2.15087360e+00  2.16118990e+00
  2.16587747e+00  2.17192403e+00  2.17939856e+00  2.18270156e+00
  2.19036524e+00  2.19793884e+00  2.21912466e+00  2.23336154e+00
  2.23660143e+00  2.24326942e+00  2.24889534e+00  2.25776021e+00
  2.27172351e+00  2.28398996e+00  2.29471741e+00  2.29900898e+00
  2.30699679e+00  2.30781198e+00  2.31195618e+00  2.31725642e+00
  2.32394661e+00  2.33506551e+00  2.34136352e+00  2.35180153e+00
  2.35386441e+00  2.36700659e+00  2.37406018e+00  2.38311437e+00
  2.38389970e+00  2.38635357e+00  2.39321787e+00  2.39690326e+00
  2.41324320e+00  2.42267617e+00  2.43029377e+00  2.43564035e+00
  2.43794723e+00  2.45145787e+00  2.46696288e+00  2.47562692e+00
  2.48320620e+00  2.49189107e+00  2.49477716e+00  2.49768279e+00
  2.50156405e+00  2.51257717e+00  2.51498980e+00  2.51575939e+00
  2.51989515e+00  2.53013088e+00  2.53296633e+00  2.53713727e+00
  2.54310408e+00  2.55154298e+00  2.55794326e+00  2.56284943e+00
  2.57668083e+00  2.58333849e+00  2.58712117e+00  2.58884455e+00
  2.59358286e+00  2.59554474e+00  2.60336885e+00  2.60890540e+00
  2.61398855e+00  2.62571592e+00  2.63266999e+00  2.63523942e+00
  2.64016502e+00  2.64639884e+00  2.65717208e+00  2.66428740e+00
  2.67473956e+00  2.67816777e+00  2.68309935e+00  2.69112527e+00
  2.70347957e+00  2.70738530e+00  2.71246567e+00  2.71893269e+00
  2.72903493e+00  2.73090372e+00  2.73945128e+00  2.74182515e+00
  2.74371860e+00  2.75729830e+00  2.76286893e+00  2.77170427e+00
  2.77677066e+00  2.77925202e+00  2.78399169e+00  2.79447243e+00
  2.80776990e+00  2.81792958e+00  2.82445366e+00  2.83118539e+00
  2.83397936e+00  2.83952422e+00  2.84531372e+00  2.85000608e+00
  2.85389746e+00  2.85910489e+00  2.86856708e+00  2.87824281e+00
  2.88924810e+00  2.89135042e+00  2.89724124e+00  2.90122879e+00
  2.90941691e+00  2.91507264e+00  2.91928329e+00  2.92586094e+00
  2.94097971e+00  2.94422283e+00  2.95741273e+00  2.96322192e+00
  2.97386098e+00  2.98592572e+00  2.99386178e+00  2.99842854e+00
  3.00650361e+00  3.02255339e+00  3.03033669e+00  3.03650311e+00
  3.03831804e+00  3.04151266e+00  3.05314015e+00  3.06013819e+00
  3.06507133e+00  3.07174600e+00  3.07324059e+00  3.08221996e+00
  3.09001947e+00  3.09258240e+00  3.09820020e+00  3.10647932e+00
  3.10946219e+00  3.12196676e+00  3.13060926e+00  3.13459789e+00
  3.14118433e+00  3.14536792e+00  3.15252766e+00  3.16188464e+00
  3.16313758e+00  3.16937970e+00  3.18209419e+00  3.18399232e+00
  3.19048878e+00  3.19741870e+00  3.20199017e+00  3.20312924e+00
  3.20801987e+00  3.21202114e+00  3.21571894e+00  3.22098995e+00
  3.22720606e+00  3.24141294e+00  3.24486347e+00  3.24962706e+00
  3.25311790e+00  3.25691434e+00  3.26139927e+00  3.26617657e+00
  3.26910634e+00  3.27553086e+00  3.28038594e+00  3.28309581e+00
  3.28848751e+00  3.29476508e+00  3.29954301e+00  3.30393753e+00
  3.31552982e+00  3.32049203e+00  3.32685572e+00  3.32913825e+00
  3.33691977e+00  3.34398145e+00  3.34529537e+00  3.34762312e+00
  3.35555118e+00  3.35973874e+00  3.36112565e+00  3.36839279e+00
  3.37372384e+00  3.38140045e+00  3.38877309e+00  3.39275164e+00
  3.39553260e+00  3.40535530e+00  3.41059884e+00  3.41327059e+00
  3.42212628e+00  3.43060392e+00  3.43297955e+00  3.44677322e+00
  3.45410813e+00  3.45711293e+00  3.46111342e+00  3.46905462e+00
  3.48827278e+00  3.49643192e+00  3.49965945e+00  3.50720451e+00
  3.51263561e+00  3.51714855e+00  3.52184700e+00  3.52559219e+00
  3.54261923e+00  3.54875120e+00  3.55386101e+00  3.56486165e+00
  3.57343571e+00  3.58527704e+00  3.59167867e+00  3.59863807e+00
  3.60412915e+00  3.61188518e+00  3.61808278e+00  3.62162650e+00
  3.63556019e+00  3.64729935e+00  3.65307466e+00  3.66055362e+00
  3.67909974e+00  3.68391378e+00  3.69137988e+00  3.70166520e+00
  3.70821145e+00  3.71438989e+00  3.72755394e+00  3.73796008e+00
  3.75086836e+00  3.75346548e+00  3.75658413e+00  3.77449263e+00
  3.78167461e+00  3.78636649e+00  3.78842803e+00  3.79917226e+00
  3.82594135e+00  3.82819554e+00  3.83858034e+00  3.84570974e+00
  3.85578649e+00  3.87033941e+00  3.88715878e+00  3.88943938e+00
  3.91133754e+00  3.91713431e+00  3.92174277e+00  3.92981045e+00
  3.93970366e+00  3.95068622e+00  3.96117390e+00  3.96595980e+00
  3.97158573e+00  3.98657288e+00  4.01337012e+00  4.01633095e+00
  4.02004198e+00  4.04266694e+00  4.04863344e+00  4.07253714e+00
  4.08674825e+00  4.09546929e+00  4.10782637e+00  4.12743071e+00
  4.13313193e+00  4.13455221e+00  4.14127067e+00  4.16561179e+00
  4.16904358e+00  4.18007686e+00  4.18717844e+00  4.21722016e+00
  4.22142463e+00  4.23446238e+00  4.23733024e+00  4.25230950e+00
  4.25807380e+00  4.26911482e+00  4.27231715e+00  4.27837303e+00
  4.29199346e+00  4.29945860e+00  4.30440534e+00  4.33025321e+00
  4.34106965e+00  4.34567507e+00  4.35731979e+00  4.38121890e+00
  4.39593304e+00  4.40342081e+00  4.41091332e+00  4.42177521e+00
  4.43392338e+00  4.44136473e+00  4.45140341e+00  4.45916918e+00
  4.47299339e+00  4.47606702e+00  4.48491069e+00  4.49109496e+00
  4.50157955e+00  4.52650054e+00  4.53255571e+00  4.54033690e+00
  4.54763782e+00  4.55027807e+00  4.58919115e+00  4.59491263e+00
  4.61442370e+00  4.62857377e+00  4.64054543e+00  4.65412681e+00
  4.67531978e+00  4.69414353e+00  4.70289889e+00  4.72777771e+00
  4.73226913e+00  4.75308748e+00  4.79229815e+00  4.79266455e+00
  4.82920772e+00  4.84986217e+00  4.86790799e+00  4.89004271e+00
  4.90305194e+00  4.91959712e+00  4.95487857e+00  4.96567780e+00
  4.99289565e+00  5.00822846e+00  5.05050016e+00  5.07938009e+00
  5.10364430e+00  5.12676214e+00  5.12796664e+00  5.14022277e+00
  5.17550987e+00  5.21080274e+00  5.21678262e+00  5.23985236e+00
  5.26706909e+00  5.29532020e+00  5.32470555e+00  5.36195394e+00
  5.45575705e+00  5.53861907e+00  5.56011650e+00  5.57516210e+00
  5.63163203e+00  5.70974096e+00  6.07449544e+00  6.33517041e+00
  6.37810518e+00  6.45759545e+00  6.50423223e+00  6.82289847e+00
  6.99554833e+00  7.07934182e+00  2.23805348e+01  2.24472497e+01
  2.24496206e+01  2.24645472e+01  2.24952106e+01  2.25196165e+01
  2.25724312e+01  2.25843420e+01  2.26241443e+01  2.26437283e+01
  2.26586139e+01  2.27175100e+01  2.27626460e+01  2.27913570e+01
  2.28392815e+01  2.28651176e+01  2.29087092e+01  2.30732024e+01
  2.31468225e+01  2.33059788e+01  4.39459110e+01]
nelec by numeric integration = 156.00012455769036
    CPU time for vxc     78.80 sec, wall time      5.26 sec
    CPU time for df vj and vk    150.26 sec, wall time     12.30 sec
E1 = -4169.209059906499  Ecoul = 1923.5259162948537  Exc = -126.4533136427357
Extra cycle  E= -853.422822016569  delta_E= -3.18e-12  |g|= 3.85e-07  |ddm|= 5.42e-07
    CPU time for scf_cycle   1626.87 sec, wall time    136.52 sec
    CPU time for SCF   1626.87 sec, wall time    136.52 sec
converged SCF energy = -853.422822016569
SCF Done after  136.5217 seconds
after SCF memory used: 6226.11328125 MB
Converting <class 'pyscf.df.df_jk.density_fit.<locals>.DFHF'> to RHF
Converting <class 'pyscf.df.df_jk.density_fit.<locals>.DFHF'> to RHF
a_x = 0.25
beta = 0.6575
alpha = 1.54
hdiag (57798,)
n_occ =  78
n_vir =  741
max_vir =  237
Q-Gamma tensors building time = 17.4426
after Q matrix memory used: 6668.25390625 MB
-------------------------------------------------------------------
|---------------   In-house Developed Davidson Starts   -----------|
Residual conv = 1e-05
Number of excited states = 5
Initial guess:   sTDA
Preconditioner:  sTDA
A matrix size =  57798 * 57798
sTDA nstate = 10
sTDA A diagonalization: threshold = 0.001 ; in 3 steps  1.198 seconds
sTDA excitation energies:
[2.87808286 2.95875383 3.6809226  4.1332043  4.85030293 4.893449
 5.00477674 5.09154802 5.1988606  5.34119158]
Intial guess time: 1.246 seconds
    CPU time for df vj and vk   1484.50 sec, wall time    110.44 sec
Iteration  0
subspace size:  10
maximum residual norm 0.0928830888459849
sTDA Preconditioning Done after  7 steps;  0.6709 seconds
subgencost 0.0509 7.59 %
mvcost 0.3687 54.96 %
GScost 0.0925 13.78 %
subcost 0.0028 0.42 %
m,new_m 10 15
    CPU time for df vj and vk    730.94 sec, wall time     55.49 sec
new generated guesses: 5
Iteration  1
subspace size:  15
maximum residual norm 0.014102903623087009
sTDA Preconditioning Done after  7 steps;  0.719 seconds
subgencost 0.0533 7.41 %
mvcost 0.4124 57.36 %
GScost 0.0904 12.58 %
subcost 0.0029 0.41 %
m,new_m 15 20
    CPU time for df vj and vk    729.64 sec, wall time     55.01 sec
new generated guesses: 5
Iteration  2
subspace size:  20
maximum residual norm 0.004808469737329387
sTDA Preconditioning Done after  7 steps;  0.6942 seconds
subgencost 0.0557 8.02 %
mvcost 0.3857 55.56 %
GScost 0.094 13.54 %
subcost 0.003 0.44 %
m,new_m 20 25
    CPU time for df vj and vk    733.59 sec, wall time     55.13 sec
new generated guesses: 5
Iteration  3
subspace size:  25
maximum residual norm 0.0010889139227399283
sTDA Preconditioning Done after  6 steps;  0.5966 seconds
subgencost 0.0427 7.15 %
mvcost 0.339 56.82 %
GScost 0.0752 12.6 %
subcost 0.0023 0.39 %
m,new_m 25 30
    CPU time for df vj and vk    731.01 sec, wall time     54.79 sec
new generated guesses: 5
Iteration  4
subspace size:  30
maximum residual norm 0.0002767376592835585
sTDA Preconditioning Done after  7 steps;  0.7051 seconds
subgencost 0.0575 8.16 %
mvcost 0.4004 56.78 %
GScost 0.0992 14.07 %
subcost 0.0028 0.4 %
m,new_m 30 35
    CPU time for df vj and vk    733.29 sec, wall time     55.93 sec
new generated guesses: 5
Iteration  5
subspace size:  35
maximum residual norm 5.5109104898287224e-05
sTDA Preconditioning Done after  8 steps;  0.5897 seconds
subgencost 0.0482 8.18 %
mvcost 0.3407 57.77 %
GScost 0.0839 14.23 %
subcost 0.0028 0.48 %
m,new_m 35 39
    CPU time for df vj and vk    585.40 sec, wall time     44.15 sec
new generated guesses: 4
Iteration  6
subspace size:  39
maximum residual norm 1.1918322758037865e-05
sTDA Preconditioning Done after  6 steps;  0.0996 seconds
subgencost 0.0083 8.3 %
mvcost 0.0613 61.53 %
GScost 0.0072 7.2 %
subcost 0.0009 0.95 %
m,new_m 39 40
    CPU time for df vj and vk    150.05 sec, wall time     12.29 sec
new generated guesses: 1
Iteration  7
subspace size:  40
maximum residual norm 7.2649689450668235e-06
Davidson procedure aborted
Davidson done after  665.8534 seconds
Total steps = 8
Final subspace shape =  (40, 40)
Preconditioning time: 4.1118 0.62 %
In-house Davidson time: 665.8709 seconds
Excited State energies (eV) =
[3.09558297 3.14876144 3.99562468 4.37106476 5.06601884]
|---------------   In-house Developed Davidson Done   -----------|
-------------------------------------------------------------------
|---------------   In-house Developed Davidson Starts   -----------|
Residual conv = 1e-05
Number of excited states = 5
Initial guess:   Adiag
Preconditioner:  Adiag
A matrix size =  57798 * 57798
Intial guess time: 0.0029 seconds
    CPU time for df vj and vk   1457.08 sec, wall time    108.79 sec
Iteration  0
subspace size:  10
maximum residual norm 0.12819440583307007
m,new_m 10 15
    CPU time for df vj and vk    728.91 sec, wall time     54.87 sec
new generated guesses: 5
Iteration  1
subspace size:  15
maximum residual norm 0.025266537441533295
m,new_m 15 20
    CPU time for df vj and vk    733.82 sec, wall time     55.18 sec
new generated guesses: 5
Iteration  2
subspace size:  20
maximum residual norm 0.009010090292399362
m,new_m 20 25
    CPU time for df vj and vk    734.22 sec, wall time     55.51 sec
new generated guesses: 5
Iteration  3
subspace size:  25
maximum residual norm 0.0030882620676352616
m,new_m 25 30
    CPU time for df vj and vk    731.14 sec, wall time     54.90 sec
new generated guesses: 5
Iteration  4
subspace size:  30
maximum residual norm 0.0008874183154943662
m,new_m 30 35
    CPU time for df vj and vk    732.40 sec, wall time     54.94 sec
new generated guesses: 5
Iteration  5
subspace size:  35
maximum residual norm 0.0002633103938565257
m,new_m 35 40
    CPU time for df vj and vk    733.71 sec, wall time     55.00 sec
new generated guesses: 5
Iteration  6
subspace size:  40
maximum residual norm 7.30669306659247e-05
m,new_m 40 44
    CPU time for df vj and vk    585.27 sec, wall time     44.46 sec
new generated guesses: 4
Iteration  7
subspace size:  44
maximum residual norm 2.338166684792873e-05
m,new_m 44 46
    CPU time for df vj and vk    300.64 sec, wall time     23.30 sec
new generated guesses: 2
Iteration  8
subspace size:  46
maximum residual norm 8.418543709429687e-06
Davidson procedure aborted
Davidson done after  728.0281 seconds
Total steps = 9
Final subspace shape =  (46, 46)
Preconditioning time: 0.038 0.01 %
In-house Davidson time: 728.0454 seconds
Excited State energies (eV) =
[3.09558297 3.14876144 3.99562468 4.37106476 5.06601885]
|---------------   In-house Developed Davidson Done   -----------|
xyzfile = 49_Retinal.xyz
checkfile = True
method = RKS
functional = pbe0
basis_set = def2-tzvp
density_fit = True
grid_level = 3
nstates = 5
pytd = False
TDA = True
TDDFT = False
dynpol = False
dynpol_omega = []
stapol = False
sTDA = False
sTDDFT = False
Truncate_test = False
truncate_virtual = 40.0
TDA_options = [0, 1]
TDDFT_options = [0]
dynpol_options = [0]
stapol_options = [0]
TDA_tolerance = 1e-05
TDDFT_tolerance = 1e-05
dynpol_tolerance = 1e-05
stapol_tolerance = 1e-05
max = 35
TDA_initialTOL = 0.001
TDDFT_initialTOL = 0.001
dynpol_initprecTOL = 0.01
stapol_initprecTOL = 0.01
TDA_precondTOL = 0.01
TDDFT_precondTOL = 0.01
TDA_extrainitial = 8
TDDFT_extrainitial = 8
TDDFT_extrainitial_3n = False
eigensolver_tol = 1e-05
memory = 50000
verbose = 5
beta = []
alpha = []
