curpath /scratch/pbsjobs/job.15971916.hpc
lib.num_threads() =  16
at beginning memory used: 51.5078125 MB
mol.max_memory 50000


System: uname_result(system='Linux', node='classct014', release='3.10.0-1127.el7.x86_64', version='#1 SMP Tue Feb 18 16:39:12 EST 2020', machine='x86_64', processor='x86_64')  Threads 16
Python 3.7.0 (default, Aug 23 2018, 14:24:33) 
[GCC 6.3.0]
numpy 1.18.1  scipy 1.4.1
Date: Wed Jul  7 16:27:08 2021
PySCF version 1.7.4
PySCF path  /home/zzz6/.local/lib/python3.7/site-packages/pyscf

[CONFIG] conf_file None
[INPUT] verbose = 5
[INPUT] max_memory = 50000 
[INPUT] num. atoms = 57
[INPUT] num. electrons = 216
[INPUT] charge = 0
[INPUT] spin (= nelec alpha-beta = 2S) = 0
[INPUT] symmetry False subgroup None
[INPUT] Mole.unit = angstrom
[INPUT]  1 O     -2.179188955825  -2.941769011295  -1.278730844551 AA   -4.118070300187  -5.559137753081  -2.416451083234 Bohr
[INPUT]  2 N     -1.064351126260  -1.229639959168  -0.122800225589 AA   -2.011332129004  -2.323682754648  -0.232058794399 Bohr
[INPUT]  3 N     -2.754235230032  -0.071226713937   0.847581952977 AA   -5.204750267390  -0.134598982093   1.601697759250 Bohr
[INPUT]  4 N      0.889648575415   0.500898607937   0.742946778759 AA    1.681192154643   0.946561185178   1.403965936982 Bohr
[INPUT]  5 N      4.569461395501  -1.756771810009  -1.021423280601 AA    8.635030574271  -3.319817584274  -1.930210257590 Bohr
[INPUT]  6 N     -1.847556968179   3.405717792202  -0.371023783380 AA   -3.491376669390   6.435873884820  -0.701133336288 Bohr
[INPUT]  7 N     -3.774110920564   2.368835605142  -1.183652149686 AA   -7.132036003596   4.476450527836  -2.236778389660 Bohr
[INPUT]  8 N     -1.704822828953   1.548221397269  -1.891351531673 AA   -3.221648237628   2.925714421030  -3.574136400138 Bohr
[INPUT]  9 C     -4.751908269950  -1.399167639404   0.036460923237 AA   -8.979805199261  -2.644043640828   0.068901159166 Bohr
[INPUT] 10 C     -3.272119665404  -1.119812803816   0.133541552029 AA   -6.183410014417  -2.116139509994   0.252356959583 Bohr
[INPUT] 11 C     -1.424194587035  -0.124692882721   0.686513021557 AA   -2.691337717585  -0.235635398024   1.297321591690 Bohr
[INPUT] 12 C     -2.234917044235  -1.847890818800  -0.472592957727 AA   -4.223381124726  -3.492007555630  -0.893071258502 Bohr
[INPUT] 13 C     -0.369529055005   0.744229570291   1.085744024627 AA   -0.698308709029   1.406390061652   2.051758847928 Bohr
[INPUT] 14 C     -5.112168505777  -2.801123327945   0.586114936849 AA   -9.660598378546  -5.293355930947   1.107596708162 Bohr
[INPUT] 15 C     -0.686208243709   1.994300826611   1.871170237551 AA   -1.296745645030   3.768682372289   3.535999281409 Bohr
[INPUT] 16 C      1.215525253655  -0.607295738512  -0.010290712150 AA    2.297009826901  -1.147622622403  -0.019446627590 Bohr
[INPUT] 17 C      0.244292505361  -1.480280257873  -0.478796048918 AA    0.461645929415  -2.797324274981  -0.904793401980 Bohr
[INPUT] 18 C     -5.264378306249  -1.214711349427  -1.408235861504 AA   -9.948233214913  -2.295471770817  -2.661180097033 Bohr
[INPUT] 19 C      2.636811351863  -0.807280516610  -0.314046146447 AA    4.982851297165  -1.525539082091  -0.593461207259 Bohr
[INPUT] 20 C     -0.049535345926   3.269481292023   1.280832236309 AA   -0.093608237286   6.178424211314   2.420422138139 Bohr
[INPUT] 21 C      3.717267294176   0.146392261409  -0.130687467364 AA    7.024617117795   0.276641280819  -0.246963521231 Bohr
[INPUT] 22 C     -4.695461692319  -3.022878363374   2.042480177910 AA   -8.873136626870  -5.712412214650   3.859728151103 Bohr
[INPUT] 23 C      4.914503740160  -0.485781273528  -0.591311148402 AA    9.287066107053  -0.917993563411  -1.117416124882 Bohr
[INPUT] 24 C      3.215752299357  -1.952239435237  -0.853459227613 AA    6.076891130226  -3.689197862174  -1.612804198671 Bohr
[INPUT] 25 C     -0.413124429578   3.498750063268  -0.202260499664 AA   -0.780692027269   6.611679397881  -0.382216950183 Bohr
[INPUT] 26 C      3.797541466403   1.466900504480   0.365724681600 AA    7.176313318182   2.772040205453   0.691119485217 Bohr
[INPUT] 27 C      6.165696991928   0.151989214391  -0.571822473937 AA   11.651478681799   0.287217989087  -1.080587867613 Bohr
[INPUT] 28 C      5.039424612170   2.104535772480   0.385207373864 AA    9.523132342395   3.976996229338   0.727936437765 Bohr
[INPUT] 29 C      6.210820467675   1.457483236908  -0.077007278262 AA   11.736749692750   2.754244148901  -0.145522665513 Bohr
[INPUT] 30 C     -2.367271816418   2.470663446856  -1.089070099331 AA   -4.473495395431   4.668877260531  -2.058044218189 Bohr
[INPUT] 31 H     -5.240127551101  -0.648349853880   0.683617001394 AA   -9.902405929368  -1.225203656736   1.291848906731 Bohr
[INPUT] 32 H     -4.646539501173  -3.581022257263  -0.056800145530 AA   -8.780687084190  -6.767151312198  -0.107336718887 Bohr
[INPUT] 33 H     -6.202455999323  -2.950949206217   0.474237580850 AA  -11.720943138386  -5.576485807253   0.896179145782 Bohr
[INPUT] 34 H     -0.317518950401   1.853774141955   2.905218485164 AA   -0.600023855618   3.503125425096   5.490067268984 Bohr
[INPUT] 35 H     -1.780280723268   2.108015382584   1.916088267062 AA   -3.364242991819   3.983571739454   3.620882055239 Bohr
[INPUT] 36 H      0.417421974303  -2.341043567221  -1.126165446170 AA    0.788813209807  -4.423931187722  -2.128144264210 Bohr
[INPUT] 37 H     -4.764083506507  -1.918702512840  -2.099204851951 AA   -9.002813061855  -3.625822263782  -3.966922249545 Bohr
[INPUT] 38 H     -6.351408308280  -1.399039030969  -1.467799777411 AA  -12.002422207936  -2.643800606109  -2.773739585004 Bohr
[INPUT] 39 H     -5.067842345097  -0.193099174830  -1.775768741502 AA   -9.576834074707  -0.364904555307  -3.355716582003 Bohr
[INPUT] 40 H     -0.405309511699   4.127864640999   1.878062912898 AA   -0.765923972792   7.800533650764   3.549024550080 Bohr
[INPUT] 41 H      1.049795064022   3.226723189236   1.380707862874 AA    1.983825157921   6.097623107439   2.609159718866 Bohr
[INPUT] 42 H     -5.186229906050  -2.288302095114   2.704962469518 AA   -9.800554141463  -4.324264250034   5.111638244616 Bohr
[INPUT] 43 H     -4.973317850569  -4.033766344294   2.387442244705 AA   -9.398208667986  -7.622713641205   4.511611980709 Bohr
[INPUT] 44 H     -3.605003926057  -2.903636943432   2.167573846940 AA   -6.812470098229  -5.487078588256   4.096120925486 Bohr
[INPUT] 45 H      2.763100320317  -2.907804968554  -1.118858521750 AA    5.221502860097  -5.494955014217  -2.114336178243 Bohr
[INPUT] 46 H      0.176455262966   2.785359124703  -0.821953834709 AA    0.333452120244   5.263565904248  -1.553267634636 Bohr
[INPUT] 47 H     -0.066968656553   4.509274249580  -0.495261220332 AA   -0.126552419815   8.521293352260  -0.935908066546 Bohr
[INPUT] 48 H      5.218084548990  -2.450451661075  -1.380326494230 AA    9.860750692417  -4.630682520917  -2.608439036575 Bohr
[INPUT] 49 H     -3.035351162890  -3.403435700640  -1.224330562938 AA   -5.735982389743  -6.431561356777  -2.313649449888 Bohr
[INPUT] 50 H      2.891823421539   1.953268347481   0.731793613226 AA    5.464754267311   3.691142224520   1.382889508704 Bohr
[INPUT] 51 H      7.068813889139  -0.353157824225  -0.930171143497 AA   13.358122275993  -0.667371566532  -1.757768710183 Bohr
[INPUT] 52 H      5.112695315934   3.127517787194   0.769249070881 AA    9.661593905463   5.910152067503   1.453670065542 Bohr
[INPUT] 53 H      7.168723407752   1.987339389682  -0.045577179300 AA   13.546923903411   3.755527163059  -0.086128386406 Bohr
[INPUT] 54 H     -4.165587979547   3.110920799507  -0.596173909352 AA   -7.871820429125   5.878788306282  -1.126605411287 Bohr
[INPUT] 55 H     -4.066298358694   1.472749078223  -0.774612113509 AA   -7.684190238700   2.783092408047  -1.463804747303 Bohr
[INPUT] 56 H     -0.740397062233   1.332910033765  -1.647436089079 AA   -1.399147671054   2.518834912501  -3.113203016085 Bohr
[INPUT] 57 H     -2.245254867767   0.747707286033  -2.210869484720 AA   -4.242916779926   1.412961991944  -4.177937823279 Bohr
[INPUT] ---------------- BASIS SET ---------------- 
[INPUT] l, kappa, [nprim/nctr], expnt,             c_1 c_2 ...
[INPUT] O
[INPUT] 0    0    [6    /1   ]  27032.382631      0.00021726302465
                                4052.3871392      0.0016838662199
                                922.3272271       0.0087395616265
                                261.24070989      0.035239968808
                                85.354641351      0.11153519115
                                31.035035245      0.25588953961
[INPUT] 0    0    [2    /1   ]  12.260860728      0.39768730901
                                4.9987076005      0.2462784943
[INPUT] 0    0    [1    /1   ]  1.1703108158         1
[INPUT] 0    0    [1    /1   ]  0.46474740994        1
[INPUT] 0    0    [1    /1   ]  0.18504536357        1
[INPUT] 1    0    [4    /1   ]  63.274954801      0.0060685103418
                                14.627049379      0.041912575824
                                4.4501223456      0.16153841088
                                1.5275799647      0.35706951311
[INPUT] 1    0    [1    /1   ]  0.52935117943        1
[INPUT] 1    0    [1    /1   ]  0.1747842127         1
[INPUT] 2    0    [1    /1   ]  2.314                1
[INPUT] 2    0    [1    /1   ]  0.645                1
[INPUT] 3    0    [1    /1   ]  1.428                1
[INPUT] C
[INPUT] 0    0    [6    /1   ]  13575.349682      0.00022245814352
                                2035.233368       0.0017232738252
                                463.22562359      0.0089255715314
                                131.20019598      0.035727984502
                                42.853015891      0.11076259931
                                15.584185766      0.24295627626
[INPUT] 0    0    [2    /1   ]  6.2067138508      0.41440263448
                                2.5764896527      0.23744968655
[INPUT] 0    0    [1    /1   ]  0.57696339419        1
[INPUT] 0    0    [1    /1   ]  0.22972831358        1
[INPUT] 0    0    [1    /1   ]  0.095164440028       1
[INPUT] 1    0    [4    /1   ]  34.697232244      0.0053333657805
                                7.9582622826      0.035864109092
                                2.3780826883      0.14215873329
                                0.81433208183     0.34270471845
[INPUT] 1    0    [1    /1   ]  0.28887547253        1
[INPUT] 1    0    [1    /1   ]  0.10056823671        1
[INPUT] 2    0    [1    /1   ]  1.097                1
[INPUT] 2    0    [1    /1   ]  0.318                1
[INPUT] 3    0    [1    /1   ]  0.761                1
[INPUT] H
[INPUT] 0    0    [3    /1   ]  34.061341         0.0060251978
                                5.1235746         0.045021094
                                1.1646626         0.20189726
[INPUT] 0    0    [1    /1   ]  0.32723041           1
[INPUT] 0    0    [1    /1   ]  0.10307241           1
[INPUT] 1    0    [1    /1   ]  0.8                  1
[INPUT] N
[INPUT] 0    0    [6    /1   ]  19730.800647      0.00021887984991
                                2957.8958745      0.0016960708803
                                673.22133595      0.0087954603538
                                190.68249494      0.035359382605
                                62.295441898      0.11095789217
                                22.654161182      0.24982972552
[INPUT] 0    0    [2    /1   ]  8.9791477428      0.40623896148
                                3.686300237       0.24338217176
[INPUT] 0    0    [1    /1   ]  0.84660076805        1
[INPUT] 0    0    [1    /1   ]  0.33647133771        1
[INPUT] 0    0    [1    /1   ]  0.13647653675        1
[INPUT] 1    0    [4    /1   ]  49.20038051       0.0055552416751
                                11.346790537      0.038052379723
                                3.4273972411      0.14953671029
                                1.1785525134      0.3494930523
[INPUT] 1    0    [1    /1   ]  0.41642204972        1
[INPUT] 1    0    [1    /1   ]  0.14260826011        1
[INPUT] 2    0    [1    /1   ]  1.654                1
[INPUT] 2    0    [1    /1   ]  0.469                1
[INPUT] 3    0    [1    /1   ]  1.093                1

nuclear repulsion = 2962.40338727846
number of shells = 438
number of NR pGTOs = 1596
number of NR cGTOs = 1092
basis = def2-tzvp
ecp = {}
CPU time:         1.97
RKS
Density fitting turned on
Molecule built
Calculating SCF Energy...


******** <class 'pyscf.df.df_jk.density_fit.<locals>.DFHF'> ********
method = DFHF-RKS-RHF
initial guess = chkfile
damping factor = 0
level_shift factor = 0
DIIS = <class 'pyscf.scf.diis.CDIIS'>
diis_start_cycle = 1
diis_space = 8
SCF conv_tol = 1e-10
SCF conv_tol_grad = None
SCF max_cycles = 50
direct_scf = True
direct_scf_tol = 1e-13
chkfile to save SCF result = 57_Cypridina_luciferin_wb97x.chk
max_memory 50000 MB (current use 55 MB)
XC functionals = wb97x
small_rho_cutoff = 1e-07
radial grids: 
    Treutler-Ahlrichs [JCP 102, 346 (1995); DOI:10.1063/1.469408] (M4) radial grids
    
becke partition: Becke, JCP 88, 2547 (1988); DOI:10.1063/1.454033
pruning grids: <function nwchem_prune at 0x7f1cfe51a048>
grids dens level: 3
symmetrized grids: False
atomic radii adjust function: <function treutler_atomic_radii_adjust at 0x7f1cfe506f28>
Set gradient conv threshold to 1e-05
atom O rad-grids = 75, ang-grids = [ 50  50  50  50  50  50  50  50  50  50  50  50  50  50  50  50  50  50
  50  50  50  50  86  86  86  86  86  86  86  86  86 266 266 266 266 266
 266 266 302 302 302 302 302 302 302 302 302 302 302 302 302 302 302 302
 302 302 302 266 266 266 266 266 266 266 266 266 266 266 266 266 266 266
 266 266 266]
atom N rad-grids = 75, ang-grids = [ 50  50  50  50  50  50  50  50  50  50  50  50  50  50  50  50  50  50
  50  50  50  50  50  86  86  86  86  86  86  86  86  86 266 266 266 266
 266 266 266 302 302 302 302 302 302 302 302 302 302 302 302 302 302 302
 302 302 302 302 266 266 266 266 266 266 266 266 266 266 266 266 266 266
 266 266 266]
atom C rad-grids = 75, ang-grids = [ 50  50  50  50  50  50  50  50  50  50  50  50  50  50  50  50  50  50
  50  50  50  50  50  86  86  86  86  86  86  86  86  86  86 266 266 266
 266 266 266 266 302 302 302 302 302 302 302 302 302 302 302 302 302 302
 302 302 302 302 302 302 266 266 266 266 266 266 266 266 266 266 266 266
 266 266 266]
atom H rad-grids = 50, ang-grids = [ 50  50  50  50  50  50  50  50  50  50  50  50  50  50  86  86  86  86
 266 266 266 266 302 302 302 302 302 302 302 302 302 302 302 302 302 266
 266 266 266 266 266 266 266 266 266 266 266 266 266 266]
tot grids = 689076
Drop grids 133078
    CPU time for setting up grids    118.59 sec, wall time      8.22 sec
nelec by numeric integration = 215.99996096282
    CPU time for vxc    195.26 sec, wall time     13.67 sec
******** <class 'pyscf.df.df.DF'> ********
auxbasis = None
max_memory = 50000
_cderi_to_save = /tmp/job.15971916.hpc/tmpuv3o0lmg
Default auxbasis def2-tzvp-jkfit is used for O def2-tzvp
Default auxbasis def2-tzvp-jkfit is used for C def2-tzvp
Default auxbasis def2-tzvp-jkfit is used for H def2-tzvp
Default auxbasis def2-tzvp-jkfit is used for N def2-tzvp
num shells = 912, num cGTOs = 2752
size of aux basis 2752
int3c2e [1/2], AO [0:401], nrow = 536130
int3c2e [2/2], AO [401:438], nrow = 60648
    CPU time for cholesky_eri    206.99 sec, wall time     39.08 sec
    CPU time for df vj and vk    639.28 sec, wall time     73.53 sec
Create RSH-DF object <pyscf.df.df.DF object at 0x7f1cfc640198> for omega=0.3
******** <class 'pyscf.df.df.DF'> ********
auxbasis = None
max_memory = 50000
_cderi_to_save = /tmp/job.15971916.hpc/tmpf5n9hgwp
Default auxbasis def2-tzvp-jkfit is used for O def2-tzvp
Default auxbasis def2-tzvp-jkfit is used for C def2-tzvp
Default auxbasis def2-tzvp-jkfit is used for H def2-tzvp
Default auxbasis def2-tzvp-jkfit is used for N def2-tzvp
num shells = 912, num cGTOs = 2752
size of aux basis 2129
int3c2e [1/2], AO [0:307], nrow = 371091
int3c2e [2/2], AO [307:438], nrow = 225687
    CPU time for cholesky_eri    291.25 sec, wall time     25.82 sec
    CPU time for df vj and vk    629.32 sec, wall time     48.94 sec
E1 = -7673.040832656365  Ecoul = 3583.7191270257304  Exc = -186.31849486688483
init E= -1313.23681321906
cond(S) = 1525712.414653274
    CPU time for initialize scf   1592.03 sec, wall time    145.33 sec
  HOMO = -0.279512480226017  LUMO = 0.0174194272814788
  mo_energy =
[-1.92614680e+01 -1.44919896e+01 -1.44488550e+01 -1.43969294e+01
 -1.43964036e+01 -1.43927532e+01 -1.43814760e+01 -1.43395403e+01
 -1.03615555e+01 -1.03414736e+01 -1.03280659e+01 -1.03205447e+01
 -1.03171233e+01 -1.03134903e+01 -1.03058453e+01 -1.02993930e+01
 -1.02969708e+01 -1.02854089e+01 -1.02782727e+01 -1.02675856e+01
 -1.02669500e+01 -1.02645533e+01 -1.02644302e+01 -1.02630058e+01
 -1.02595375e+01 -1.02573868e+01 -1.02543972e+01 -1.02519352e+01
 -1.02513716e+01 -1.02451047e+01 -1.23067705e+00 -1.16834238e+00
 -1.11751000e+00 -1.09100652e+00 -1.07543236e+00 -1.04020390e+00
 -9.84475896e-01 -9.81422778e-01 -9.70321995e-01 -9.61314767e-01
 -9.42226788e-01 -9.04686963e-01 -8.95298377e-01 -8.80610143e-01
 -8.68888899e-01 -8.63537027e-01 -8.46089181e-01 -8.17342609e-01
 -7.90997846e-01 -7.77365060e-01 -7.57997280e-01 -7.54831841e-01
 -7.45663122e-01 -7.25691179e-01 -7.14163391e-01 -7.06493199e-01
 -6.92923264e-01 -6.75546854e-01 -6.65594714e-01 -6.50038604e-01
 -6.42185997e-01 -6.38198574e-01 -6.19575096e-01 -6.13091813e-01
 -6.11221778e-01 -5.98406615e-01 -5.90727271e-01 -5.85813826e-01
 -5.76877681e-01 -5.72833349e-01 -5.64853888e-01 -5.58663163e-01
 -5.54564501e-01 -5.51748026e-01 -5.45807517e-01 -5.44039313e-01
 -5.39081323e-01 -5.35624858e-01 -5.32365399e-01 -5.27995110e-01
 -5.17583954e-01 -5.08589886e-01 -5.00628360e-01 -4.97976381e-01
 -4.93945341e-01 -4.88499332e-01 -4.74457087e-01 -4.72135085e-01
 -4.58108538e-01 -4.57751273e-01 -4.55153850e-01 -4.50303058e-01
 -4.48292125e-01 -4.42961328e-01 -4.42510408e-01 -4.39069354e-01
 -4.31770832e-01 -4.21746133e-01 -3.96614065e-01 -3.90180122e-01
 -3.75516264e-01 -3.67114524e-01 -3.39277528e-01 -3.36131994e-01
 -3.16519787e-01 -3.12493206e-01 -3.05658983e-01 -2.79512480e-01
  1.74194273e-02  3.78699155e-02  6.59293454e-02  7.40549853e-02
  9.44866155e-02  1.05916974e-01  1.10367180e-01  1.19694939e-01
  1.22546124e-01  1.28651280e-01  1.33203219e-01  1.37208258e-01
  1.42576087e-01  1.47311927e-01  1.48994496e-01  1.53231285e-01
  1.61511947e-01  1.63149761e-01  1.67632966e-01  1.75919484e-01
  1.80974651e-01  1.83747346e-01  1.87454165e-01  1.89496720e-01
  1.93143140e-01  1.99543436e-01  2.01612683e-01  2.07865064e-01
  2.09798381e-01  2.15612686e-01  2.16313271e-01  2.19548018e-01
  2.23618286e-01  2.29085309e-01  2.32583319e-01  2.37102763e-01
  2.39662033e-01  2.45048604e-01  2.49327571e-01  2.52160030e-01
  2.53149702e-01  2.60875951e-01  2.62890069e-01  2.63971670e-01
  2.68878417e-01  2.69943944e-01  2.72281869e-01  2.76559274e-01
  2.81400626e-01  2.82255431e-01  2.86399740e-01  2.92118454e-01
  2.93214423e-01  3.02952996e-01  3.04995343e-01  3.06514778e-01
  3.08779974e-01  3.11136619e-01  3.14876241e-01  3.19043374e-01
  3.21682634e-01  3.27080139e-01  3.28672881e-01  3.32971600e-01
  3.37678496e-01  3.38714865e-01  3.42480472e-01  3.45614219e-01
  3.50058113e-01  3.52524057e-01  3.59983091e-01  3.61028546e-01
  3.65175813e-01  3.69818782e-01  3.72025336e-01  3.77431940e-01
  3.80313288e-01  3.84933315e-01  3.91647329e-01  3.92144337e-01
  3.94253887e-01  4.02422030e-01  4.03244287e-01  4.07966906e-01
  4.11632341e-01  4.13419870e-01  4.20699670e-01  4.25516659e-01
  4.27897131e-01  4.30485557e-01  4.39810534e-01  4.42482817e-01
  4.44009049e-01  4.47966568e-01  4.49075335e-01  4.54621344e-01
  4.57063628e-01  4.58013064e-01  4.63503034e-01  4.65801656e-01
  4.70028408e-01  4.74822141e-01  4.77304724e-01  4.81440316e-01
  4.82472131e-01  4.91246700e-01  4.92872090e-01  4.93669936e-01
  4.95360092e-01  4.97636590e-01  5.04431626e-01  5.06700629e-01
  5.10750239e-01  5.13270953e-01  5.14417777e-01  5.17840953e-01
  5.20613276e-01  5.22590481e-01  5.24581254e-01  5.27561503e-01
  5.31123427e-01  5.33753973e-01  5.36823960e-01  5.38680581e-01
  5.41165527e-01  5.43239295e-01  5.45450772e-01  5.48875602e-01
  5.50902183e-01  5.52362675e-01  5.53844861e-01  5.56778081e-01
  5.59138662e-01  5.62215642e-01  5.64965168e-01  5.68218008e-01
  5.74868588e-01  5.78806724e-01  5.84811410e-01  5.89063113e-01
  5.91627385e-01  5.96657923e-01  6.03182857e-01  6.06599669e-01
  6.08894057e-01  6.15129558e-01  6.16647158e-01  6.19776865e-01
  6.21327565e-01  6.24686149e-01  6.33183411e-01  6.34237547e-01
  6.38753219e-01  6.46654852e-01  6.48021306e-01  6.49388724e-01
  6.55129877e-01  6.61080397e-01  6.67449500e-01  6.69640190e-01
  6.74397532e-01  6.82441697e-01  6.85859002e-01  6.88864554e-01
  6.95735191e-01  6.96027075e-01  7.04067521e-01  7.07203201e-01
  7.09538347e-01  7.10926084e-01  7.15714891e-01  7.21481184e-01
  7.25723149e-01  7.28056747e-01  7.28555205e-01  7.31695196e-01
  7.39868575e-01  7.44704347e-01  7.49987389e-01  7.56919302e-01
  7.63052693e-01  7.64086747e-01  7.68277284e-01  7.72736973e-01
  7.73797067e-01  7.83340445e-01  7.85094299e-01  7.91138787e-01
  7.93426573e-01  8.03785906e-01  8.04926213e-01  8.09332848e-01
  8.17128996e-01  8.17975114e-01  8.26696393e-01  8.27663811e-01
  8.33813872e-01  8.37600124e-01  8.39998921e-01  8.46296070e-01
  8.46932960e-01  8.54238149e-01  8.56634593e-01  8.61249243e-01
  8.68718209e-01  8.72459211e-01  8.74074018e-01  8.81177639e-01
  8.87036055e-01  8.91102202e-01  8.97059866e-01  9.00613822e-01
  9.02437131e-01  9.09459568e-01  9.13889892e-01  9.15229987e-01
  9.28110152e-01  9.31235287e-01  9.37102560e-01  9.40738952e-01
  9.46038117e-01  9.49889193e-01  9.55436536e-01  9.57997704e-01
  9.61617875e-01  9.66451168e-01  9.73677297e-01  9.79870719e-01
  9.82347724e-01  9.88352731e-01  9.92682393e-01  9.93501717e-01
  1.00367648e+00  1.00898182e+00  1.01529550e+00  1.02803644e+00
  1.03359693e+00  1.03806137e+00  1.04423610e+00  1.04766387e+00
  1.05676081e+00  1.05820005e+00  1.06024091e+00  1.06557816e+00
  1.06818050e+00  1.08030426e+00  1.08880542e+00  1.09605822e+00
  1.10417645e+00  1.10755136e+00  1.11145381e+00  1.12295626e+00
  1.12431618e+00  1.13379726e+00  1.14320984e+00  1.14782352e+00
  1.15124923e+00  1.15731459e+00  1.16359941e+00  1.16679536e+00
  1.17350101e+00  1.18041704e+00  1.19334102e+00  1.19736984e+00
  1.20387209e+00  1.20622798e+00  1.20927323e+00  1.21244251e+00
  1.22162075e+00  1.22887203e+00  1.23873619e+00  1.24423556e+00
  1.24872716e+00  1.25484807e+00  1.26135109e+00  1.26714510e+00
  1.27568653e+00  1.28238659e+00  1.28599150e+00  1.29053059e+00
  1.29662194e+00  1.30381284e+00  1.31231325e+00  1.31598608e+00
  1.31958251e+00  1.32538441e+00  1.32768283e+00  1.33794353e+00
  1.34103406e+00  1.34632841e+00  1.35341323e+00  1.35579229e+00
  1.36376795e+00  1.37054783e+00  1.37181922e+00  1.37974485e+00
  1.38843817e+00  1.39679906e+00  1.40352626e+00  1.40990129e+00
  1.41799918e+00  1.42203319e+00  1.42775044e+00  1.43653838e+00
  1.44324959e+00  1.44575959e+00  1.46098323e+00  1.46537271e+00
  1.46904120e+00  1.47543399e+00  1.47856523e+00  1.48793095e+00
  1.49066592e+00  1.50365834e+00  1.50448939e+00  1.50844897e+00
  1.51574514e+00  1.51919001e+00  1.52088013e+00  1.52702420e+00
  1.53906672e+00  1.54117455e+00  1.54713105e+00  1.55723559e+00
  1.55852013e+00  1.56359870e+00  1.57280615e+00  1.57422654e+00
  1.58123526e+00  1.59052091e+00  1.59573813e+00  1.60509160e+00
  1.60818197e+00  1.61351496e+00  1.61584693e+00  1.62027797e+00
  1.62149951e+00  1.62879393e+00  1.63455093e+00  1.63608341e+00
  1.64042517e+00  1.65645403e+00  1.66250730e+00  1.66498560e+00
  1.67803667e+00  1.68114668e+00  1.68452001e+00  1.68594661e+00
  1.68768758e+00  1.68870583e+00  1.69374318e+00  1.69636939e+00
  1.70340267e+00  1.70515137e+00  1.71218108e+00  1.71366998e+00
  1.71581728e+00  1.72506109e+00  1.72720157e+00  1.73673726e+00
  1.73965754e+00  1.74541035e+00  1.75101362e+00  1.75532185e+00
  1.75918959e+00  1.76351297e+00  1.76663936e+00  1.77604203e+00
  1.77980094e+00  1.78454165e+00  1.78669387e+00  1.79099453e+00
  1.79646744e+00  1.80413735e+00  1.80741048e+00  1.81066533e+00
  1.81879494e+00  1.82122307e+00  1.82873715e+00  1.83173677e+00
  1.84039631e+00  1.84727436e+00  1.85327752e+00  1.85787769e+00
  1.85996737e+00  1.86508637e+00  1.87711544e+00  1.88368576e+00
  1.88776643e+00  1.89048714e+00  1.89638133e+00  1.90340061e+00
  1.90960637e+00  1.91230709e+00  1.91760582e+00  1.92764342e+00
  1.93003443e+00  1.93199827e+00  1.93846457e+00  1.94860329e+00
  1.95288045e+00  1.96297945e+00  1.96696424e+00  1.97181345e+00
  1.98026961e+00  1.98402683e+00  1.98799563e+00  2.00021801e+00
  2.00452238e+00  2.01234301e+00  2.02063258e+00  2.02738041e+00
  2.03277320e+00  2.04281704e+00  2.05343394e+00  2.05925386e+00
  2.06416627e+00  2.06657174e+00  2.06879748e+00  2.07400748e+00
  2.07892633e+00  2.09041929e+00  2.09760502e+00  2.10147143e+00
  2.10350305e+00  2.10980765e+00  2.11187244e+00  2.11814121e+00
  2.12452138e+00  2.12970438e+00  2.13861353e+00  2.14053550e+00
  2.14657107e+00  2.14993706e+00  2.15469829e+00  2.15689822e+00
  2.16637536e+00  2.17558718e+00  2.17842860e+00  2.17985496e+00
  2.18814953e+00  2.19598385e+00  2.20700619e+00  2.21138852e+00
  2.22294105e+00  2.23371244e+00  2.23746181e+00  2.24479242e+00
  2.25241457e+00  2.26357128e+00  2.26955687e+00  2.27325215e+00
  2.27795284e+00  2.28839852e+00  2.29384673e+00  2.29849696e+00
  2.30037418e+00  2.30690449e+00  2.31883086e+00  2.32002044e+00
  2.32228308e+00  2.33868369e+00  2.33887557e+00  2.34376177e+00
  2.34642757e+00  2.36959921e+00  2.37140767e+00  2.37908637e+00
  2.38581760e+00  2.39631078e+00  2.40121633e+00  2.40793681e+00
  2.41093230e+00  2.41866946e+00  2.42026321e+00  2.42306352e+00
  2.43371479e+00  2.43447220e+00  2.44060152e+00  2.44670843e+00
  2.45150346e+00  2.45660041e+00  2.46524577e+00  2.46944297e+00
  2.47560223e+00  2.48964514e+00  2.49752270e+00  2.50138697e+00
  2.50803059e+00  2.51363103e+00  2.51563270e+00  2.52351814e+00
  2.53543983e+00  2.53761607e+00  2.54255774e+00  2.54737395e+00
  2.55055011e+00  2.56569097e+00  2.57085160e+00  2.57504122e+00
  2.58522826e+00  2.58571114e+00  2.59036816e+00  2.59988577e+00
  2.60554600e+00  2.61503474e+00  2.61881244e+00  2.62177270e+00
  2.62973496e+00  2.63630907e+00  2.64047852e+00  2.64652584e+00
  2.65880245e+00  2.66634773e+00  2.67000323e+00  2.68072505e+00
  2.68321620e+00  2.68399237e+00  2.68524196e+00  2.69143845e+00
  2.69820653e+00  2.70310999e+00  2.71069078e+00  2.71260229e+00
  2.72054461e+00  2.72371698e+00  2.72906634e+00  2.73055443e+00
  2.73910873e+00  2.74414047e+00  2.74906005e+00  2.75779682e+00
  2.76112177e+00  2.76437678e+00  2.76870871e+00  2.77190248e+00
  2.77692407e+00  2.77958975e+00  2.78557386e+00  2.78964920e+00
  2.79569863e+00  2.79848628e+00  2.80523288e+00  2.80611379e+00
  2.80864719e+00  2.81401317e+00  2.82024958e+00  2.82082995e+00
  2.83065127e+00  2.83336005e+00  2.84174649e+00  2.84625708e+00
  2.84956372e+00  2.85569285e+00  2.86276133e+00  2.86440803e+00
  2.86607455e+00  2.87500975e+00  2.87820919e+00  2.88687864e+00
  2.89174413e+00  2.89414758e+00  2.90542823e+00  2.91183961e+00
  2.91361613e+00  2.91710598e+00  2.92530308e+00  2.92858714e+00
  2.93993930e+00  2.94121713e+00  2.94889856e+00  2.95470261e+00
  2.96673059e+00  2.97540370e+00  2.98234001e+00  2.99229307e+00
  2.99385851e+00  3.00015842e+00  3.00943189e+00  3.01303068e+00
  3.02184086e+00  3.03083449e+00  3.03282474e+00  3.04027777e+00
  3.04461974e+00  3.04894294e+00  3.05458790e+00  3.05878121e+00
  3.06492508e+00  3.07574852e+00  3.07739275e+00  3.08022628e+00
  3.08601590e+00  3.10173308e+00  3.10356129e+00  3.10959991e+00
  3.11518822e+00  3.11627598e+00  3.12295175e+00  3.13501646e+00
  3.13845071e+00  3.13946446e+00  3.14143695e+00  3.15977837e+00
  3.16075085e+00  3.16298943e+00  3.16662498e+00  3.17520563e+00
  3.18515028e+00  3.18929420e+00  3.19524883e+00  3.20056265e+00
  3.20328671e+00  3.20842770e+00  3.21050191e+00  3.21357604e+00
  3.21803559e+00  3.22175579e+00  3.22715271e+00  3.23004327e+00
  3.23828518e+00  3.24548569e+00  3.25068652e+00  3.25262994e+00
  3.25989127e+00  3.26634564e+00  3.26812950e+00  3.27226130e+00
  3.27467530e+00  3.28300109e+00  3.28699822e+00  3.28857719e+00
  3.29104446e+00  3.29412248e+00  3.29783157e+00  3.30294690e+00
  3.30563508e+00  3.30849234e+00  3.32236814e+00  3.32673765e+00
  3.33130520e+00  3.33342380e+00  3.33840463e+00  3.33878565e+00
  3.34479769e+00  3.35443259e+00  3.35928916e+00  3.36130893e+00
  3.36863359e+00  3.37057771e+00  3.37999706e+00  3.38224059e+00
  3.38566510e+00  3.39368512e+00  3.39412803e+00  3.39888741e+00
  3.40403103e+00  3.40624944e+00  3.40806434e+00  3.41641599e+00
  3.41970720e+00  3.42323127e+00  3.42888954e+00  3.43487642e+00
  3.44128380e+00  3.44200158e+00  3.44611622e+00  3.45235915e+00
  3.45770464e+00  3.46792676e+00  3.46885374e+00  3.47061650e+00
  3.48041221e+00  3.48461484e+00  3.48628243e+00  3.48962940e+00
  3.50161459e+00  3.50522880e+00  3.51206835e+00  3.51645685e+00
  3.52239379e+00  3.52712809e+00  3.53124295e+00  3.53407767e+00
  3.53995391e+00  3.54349481e+00  3.54815494e+00  3.55334576e+00
  3.55989579e+00  3.56408035e+00  3.56877032e+00  3.57043697e+00
  3.58028583e+00  3.58418404e+00  3.59046621e+00  3.60165177e+00
  3.60430956e+00  3.60703537e+00  3.61256157e+00  3.62089732e+00
  3.62370118e+00  3.62999008e+00  3.63322247e+00  3.63500895e+00
  3.64226919e+00  3.64926721e+00  3.65443676e+00  3.65785931e+00
  3.66154514e+00  3.66610743e+00  3.67243317e+00  3.68561271e+00
  3.68840407e+00  3.69280362e+00  3.69695278e+00  3.70332227e+00
  3.71475958e+00  3.71781673e+00  3.72563773e+00  3.72813433e+00
  3.74431430e+00  3.75602225e+00  3.76770268e+00  3.77533059e+00
  3.78039390e+00  3.78120846e+00  3.78466739e+00  3.79205437e+00
  3.80524670e+00  3.81122994e+00  3.82320363e+00  3.83464120e+00
  3.84023848e+00  3.85042843e+00  3.86184907e+00  3.86646471e+00
  3.87242315e+00  3.87956387e+00  3.89351547e+00  3.90891509e+00
  3.91475046e+00  3.92778029e+00  3.93157389e+00  3.93816688e+00
  3.94580124e+00  3.95706739e+00  3.96079061e+00  3.97499288e+00
  3.98186337e+00  3.99223430e+00  3.99772419e+00  4.00219183e+00
  4.00925767e+00  4.01620821e+00  4.02732579e+00  4.02989175e+00
  4.03750426e+00  4.05065546e+00  4.06347866e+00  4.06512045e+00
  4.07375280e+00  4.08391591e+00  4.08633267e+00  4.09122188e+00
  4.10060501e+00  4.11392716e+00  4.11892445e+00  4.12943003e+00
  4.13104250e+00  4.13755098e+00  4.14542635e+00  4.15900910e+00
  4.16798014e+00  4.17903229e+00  4.18079206e+00  4.19122738e+00
  4.20311717e+00  4.20503961e+00  4.21015831e+00  4.21788899e+00
  4.22501077e+00  4.23646817e+00  4.24419235e+00  4.25613164e+00
  4.25942908e+00  4.26035419e+00  4.26869300e+00  4.27545834e+00
  4.29403597e+00  4.29810388e+00  4.30699137e+00  4.31153057e+00
  4.32103245e+00  4.33204098e+00  4.35406954e+00  4.35637126e+00
  4.37088481e+00  4.37531430e+00  4.38429538e+00  4.39385800e+00
  4.39848506e+00  4.40551793e+00  4.42034098e+00  4.42874105e+00
  4.44012568e+00  4.44265056e+00  4.45118517e+00  4.45473667e+00
  4.46352134e+00  4.47013630e+00  4.49037758e+00  4.50137630e+00
  4.51152578e+00  4.51451089e+00  4.52295776e+00  4.52857038e+00
  4.54210535e+00  4.55575673e+00  4.56252685e+00  4.56549845e+00
  4.57184398e+00  4.58719222e+00  4.61123725e+00  4.63217610e+00
  4.65827540e+00  4.66637007e+00  4.67990329e+00  4.68554212e+00
  4.69094261e+00  4.69692624e+00  4.71351590e+00  4.72462206e+00
  4.73159453e+00  4.74458849e+00  4.76541781e+00  4.77263553e+00
  4.77857397e+00  4.78508597e+00  4.80644244e+00  4.81068479e+00
  4.81664113e+00  4.83460973e+00  4.84364941e+00  4.84784953e+00
  4.85783479e+00  4.86339885e+00  4.87034709e+00  4.87966681e+00
  4.88419375e+00  4.89035538e+00  4.90218434e+00  4.90347750e+00
  4.91311505e+00  4.92766198e+00  4.94225435e+00  4.94616982e+00
  4.95782587e+00  4.97333890e+00  4.97370947e+00  4.98179631e+00
  4.99320105e+00  4.99761935e+00  5.02440553e+00  5.03804080e+00
  5.05470610e+00  5.06737953e+00  5.07278810e+00  5.07447970e+00
  5.08411518e+00  5.09064241e+00  5.10489891e+00  5.11224709e+00
  5.11558880e+00  5.12629811e+00  5.12821210e+00  5.14392086e+00
  5.15526220e+00  5.16020712e+00  5.17000700e+00  5.17375497e+00
  5.18170912e+00  5.18942237e+00  5.20008778e+00  5.20276420e+00
  5.21670960e+00  5.22702620e+00  5.23399309e+00  5.25490940e+00
  5.26457049e+00  5.27887402e+00  5.30098386e+00  5.31655366e+00
  5.32182713e+00  5.32669218e+00  5.33832256e+00  5.35043589e+00
  5.35952886e+00  5.36737559e+00  5.38029745e+00  5.39557033e+00
  5.41421675e+00  5.42733651e+00  5.43474570e+00  5.44846752e+00
  5.46013555e+00  5.47204031e+00  5.49170016e+00  5.50320839e+00
  5.52482641e+00  5.53088427e+00  5.53201844e+00  5.54669100e+00
  5.56608583e+00  5.57501263e+00  5.59810277e+00  5.60988070e+00
  5.62698686e+00  5.63698629e+00  5.64595415e+00  5.66405819e+00
  5.67785288e+00  5.71371138e+00  5.73091289e+00  5.73129859e+00
  5.78038974e+00  5.79651473e+00  5.80256653e+00  5.82569071e+00
  5.87210818e+00  5.87625841e+00  5.91660307e+00  5.93689627e+00
  5.93986230e+00  5.96980659e+00  5.97463803e+00  5.99216022e+00
  6.02113286e+00  6.08286380e+00  6.10494885e+00  6.14152945e+00
  6.16433180e+00  6.18419033e+00  6.21027096e+00  6.27200120e+00
  6.37708739e+00  6.37935655e+00  6.41056136e+00  6.48650702e+00
  6.56027570e+00  6.75933613e+00  6.80200091e+00  6.89234465e+00
  7.09607752e+00  7.35161833e+00  2.23638664e+01  2.23765920e+01
  2.23994170e+01  2.25289211e+01  2.25622880e+01  2.26405523e+01
  2.26515340e+01  2.26569417e+01  2.26599787e+01  2.26750073e+01
  2.26945750e+01  2.28356948e+01  2.29566845e+01  2.29665023e+01
  2.30342845e+01  2.31182691e+01  2.31874537e+01  2.32118723e+01
  2.33451819e+01  2.34085208e+01  2.35552693e+01  2.36530928e+01
  3.21215230e+01  3.22263947e+01  3.24420065e+01  3.26187340e+01
  3.27201776e+01  3.28372785e+01  3.31837683e+01  4.40618950e+01]
nelec by numeric integration = 215.9999609628619
    CPU time for vxc    125.51 sec, wall time      8.66 sec
    CPU time for df vj and vk    432.44 sec, wall time     34.20 sec
    CPU time for df vj and vk    333.00 sec, wall time     22.18 sec
E1 = -7673.040872308105  Ecoul = 3583.7191668267537  Exc = -186.3184950161705
cycle= 1 E= -1313.23681321906  delta_E= -1.82e-12  |g|= 7.03e-06  |ddm|= 1.47e-05
    CPU time for cycle= 1    895.70 sec, wall time     65.71 sec
  HOMO = -0.279512414554166  LUMO = 0.0174198297458871
  mo_energy =
[-1.92614720e+01 -1.44919893e+01 -1.44488556e+01 -1.43969319e+01
 -1.43963999e+01 -1.43927530e+01 -1.43814781e+01 -1.43395357e+01
 -1.03615566e+01 -1.03414745e+01 -1.03280651e+01 -1.03205434e+01
 -1.03171226e+01 -1.03134918e+01 -1.03058464e+01 -1.02993932e+01
 -1.02969700e+01 -1.02854091e+01 -1.02782728e+01 -1.02675845e+01
 -1.02669498e+01 -1.02645515e+01 -1.02644304e+01 -1.02630038e+01
 -1.02595378e+01 -1.02573865e+01 -1.02543948e+01 -1.02519345e+01
 -1.02513713e+01 -1.02451037e+01 -1.23067858e+00 -1.16834262e+00
 -1.11751010e+00 -1.09100678e+00 -1.07543121e+00 -1.04020365e+00
 -9.84476727e-01 -9.81421832e-01 -9.70321426e-01 -9.61314756e-01
 -9.42226364e-01 -9.04686284e-01 -8.95298446e-01 -8.80609815e-01
 -8.68888682e-01 -8.63536677e-01 -8.46088896e-01 -8.17342085e-01
 -7.90997640e-01 -7.77364958e-01 -7.57997108e-01 -7.54832093e-01
 -7.45662939e-01 -7.25691144e-01 -7.14163460e-01 -7.06493041e-01
 -6.92923215e-01 -6.75546675e-01 -6.65594602e-01 -6.50038607e-01
 -6.42186066e-01 -6.38198831e-01 -6.19575187e-01 -6.13091816e-01
 -6.11221814e-01 -5.98406607e-01 -5.90727244e-01 -5.85814198e-01
 -5.76877597e-01 -5.72833218e-01 -5.64853577e-01 -5.58663079e-01
 -5.54564570e-01 -5.51747971e-01 -5.45807755e-01 -5.44039437e-01
 -5.39081290e-01 -5.35624479e-01 -5.32365368e-01 -5.27994935e-01
 -5.17584264e-01 -5.08589621e-01 -5.00628034e-01 -4.97975806e-01
 -4.93945354e-01 -4.88499164e-01 -4.74457138e-01 -4.72134898e-01
 -4.58108295e-01 -4.57750991e-01 -4.55153601e-01 -4.50302937e-01
 -4.48291887e-01 -4.42960878e-01 -4.42510331e-01 -4.39068643e-01
 -4.31770145e-01 -4.21745758e-01 -3.96613933e-01 -3.90179611e-01
 -3.75516827e-01 -3.67113115e-01 -3.39276737e-01 -3.36131042e-01
 -3.16519448e-01 -3.12492475e-01 -3.05658985e-01 -2.79512415e-01
  1.74198297e-02  3.78702037e-02  6.59297277e-02  7.40545770e-02
  9.44870020e-02  1.05916879e-01  1.10366964e-01  1.19694898e-01
  1.22546044e-01  1.28651409e-01  1.33203002e-01  1.37208013e-01
  1.42576165e-01  1.47312133e-01  1.48994692e-01  1.53231291e-01
  1.61512125e-01  1.63149777e-01  1.67633068e-01  1.75919692e-01
  1.80974651e-01  1.83747361e-01  1.87454228e-01  1.89496830e-01
  1.93143222e-01  1.99543366e-01  2.01612877e-01  2.07865275e-01
  2.09798601e-01  2.15612784e-01  2.16313029e-01  2.19548065e-01
  2.23618293e-01  2.29085477e-01  2.32583417e-01  2.37102824e-01
  2.39662076e-01  2.45048796e-01  2.49327483e-01  2.52160070e-01
  2.53149649e-01  2.60876187e-01  2.62890289e-01  2.63971799e-01
  2.68878552e-01  2.69943910e-01  2.72282094e-01  2.76559425e-01
  2.81400891e-01  2.82255563e-01  2.86399905e-01  2.92118722e-01
  2.93214649e-01  3.02953078e-01  3.04995354e-01  3.06515056e-01
  3.08779970e-01  3.11136682e-01  3.14876327e-01  3.19043422e-01
  3.21682758e-01  3.27080372e-01  3.28673045e-01  3.32971427e-01
  3.37678621e-01  3.38715157e-01  3.42480621e-01  3.45614333e-01
  3.50058083e-01  3.52524204e-01  3.59983007e-01  3.61028697e-01
  3.65175779e-01  3.69818970e-01  3.72025426e-01  3.77432209e-01
  3.80313317e-01  3.84933535e-01  3.91647557e-01  3.92144375e-01
  3.94253893e-01  4.02422290e-01  4.03244304e-01  4.07967074e-01
  4.11632480e-01  4.13420044e-01  4.20699781e-01  4.25516739e-01
  4.27897217e-01  4.30485735e-01  4.39810576e-01  4.42483071e-01
  4.44009134e-01  4.47966707e-01  4.49075504e-01  4.54621303e-01
  4.57063799e-01  4.58012992e-01  4.63503034e-01  4.65801820e-01
  4.70028553e-01  4.74822287e-01  4.77304829e-01  4.81440355e-01
  4.82472297e-01  4.91246870e-01  4.92872166e-01  4.93670053e-01
  4.95360139e-01  4.97636562e-01  5.04431794e-01  5.06700749e-01
  5.10750278e-01  5.13271019e-01  5.14417822e-01  5.17840997e-01
  5.20613407e-01  5.22590585e-01  5.24581341e-01  5.27561696e-01
  5.31123680e-01  5.33754373e-01  5.36824072e-01  5.38680740e-01
  5.41165661e-01  5.43239417e-01  5.45450905e-01  5.48875565e-01
  5.50902232e-01  5.52362867e-01  5.53845125e-01  5.56778371e-01
  5.59138957e-01  5.62215751e-01  5.64965359e-01  5.68218204e-01
  5.74868771e-01  5.78806862e-01  5.84811501e-01  5.89063302e-01
  5.91627643e-01  5.96658089e-01  6.03183096e-01  6.06599728e-01
  6.08894225e-01  6.15129576e-01  6.16647347e-01  6.19777054e-01
  6.21327769e-01  6.24686306e-01  6.33183589e-01  6.34237641e-01
  6.38753489e-01  6.46654922e-01  6.48021276e-01  6.49388893e-01
  6.55130061e-01  6.61080524e-01  6.67449726e-01  6.69640356e-01
  6.74397567e-01  6.82441801e-01  6.85858983e-01  6.88864730e-01
  6.95735198e-01  6.96027195e-01  7.04067578e-01  7.07203343e-01
  7.09538405e-01  7.10926342e-01  7.15714951e-01  7.21481258e-01
  7.25723355e-01  7.28056752e-01  7.28555436e-01  7.31695214e-01
  7.39868792e-01  7.44704579e-01  7.49987533e-01  7.56919522e-01
  7.63052789e-01  7.64086878e-01  7.68277408e-01  7.72737117e-01
  7.73797227e-01  7.83340724e-01  7.85094422e-01  7.91138963e-01
  7.93426717e-01  8.03786124e-01  8.04926355e-01  8.09333035e-01
  8.17129104e-01  8.17975250e-01  8.26696702e-01  8.27663965e-01
  8.33813967e-01  8.37600392e-01  8.39999053e-01  8.46296344e-01
  8.46933214e-01  8.54238515e-01  8.56634797e-01  8.61249503e-01
  8.68718542e-01  8.72459510e-01  8.74074110e-01  8.81177935e-01
  8.87036340e-01  8.91102296e-01  8.97060083e-01  9.00613944e-01
  9.02437438e-01  9.09459597e-01  9.13890073e-01  9.15230224e-01
  9.28110331e-01  9.31235578e-01  9.37102857e-01  9.40739176e-01
  9.46038372e-01  9.49889435e-01  9.55436584e-01  9.57997772e-01
  9.61618008e-01  9.66451235e-01  9.73677468e-01  9.79870958e-01
  9.82347908e-01  9.88352807e-01  9.92682523e-01  9.93501897e-01
  1.00367670e+00  1.00898201e+00  1.01529580e+00  1.02803663e+00
  1.03359703e+00  1.03806131e+00  1.04423620e+00  1.04766404e+00
  1.05676098e+00  1.05820026e+00  1.06024112e+00  1.06557838e+00
  1.06818072e+00  1.08030469e+00  1.08880563e+00  1.09605825e+00
  1.10417658e+00  1.10755148e+00  1.11145400e+00  1.12295639e+00
  1.12431618e+00  1.13379736e+00  1.14320988e+00  1.14782384e+00
  1.15124946e+00  1.15731487e+00  1.16359973e+00  1.16679540e+00
  1.17350127e+00  1.18041716e+00  1.19334114e+00  1.19737009e+00
  1.20387228e+00  1.20622811e+00  1.20927336e+00  1.21244243e+00
  1.22162088e+00  1.22887220e+00  1.23873629e+00  1.24423580e+00
  1.24872718e+00  1.25484830e+00  1.26135117e+00  1.26714515e+00
  1.27568638e+00  1.28238671e+00  1.28599161e+00  1.29053068e+00
  1.29662192e+00  1.30381309e+00  1.31231338e+00  1.31598618e+00
  1.31958264e+00  1.32538472e+00  1.32768307e+00  1.33794366e+00
  1.34103437e+00  1.34632871e+00  1.35341348e+00  1.35579259e+00
  1.36376804e+00  1.37054823e+00  1.37181960e+00  1.37974501e+00
  1.38843841e+00  1.39679936e+00  1.40352627e+00  1.40990147e+00
  1.41799924e+00  1.42203349e+00  1.42775069e+00  1.43653858e+00
  1.44324991e+00  1.44575974e+00  1.46098335e+00  1.46537285e+00
  1.46904131e+00  1.47543400e+00  1.47856533e+00  1.48793110e+00
  1.49066604e+00  1.50365834e+00  1.50448944e+00  1.50844907e+00
  1.51574537e+00  1.51919017e+00  1.52088019e+00  1.52702413e+00
  1.53906683e+00  1.54117475e+00  1.54713100e+00  1.55723573e+00
  1.55852029e+00  1.56359887e+00  1.57280625e+00  1.57422671e+00
  1.58123552e+00  1.59052086e+00  1.59573823e+00  1.60509164e+00
  1.60818219e+00  1.61351525e+00  1.61584721e+00  1.62027823e+00
  1.62149956e+00  1.62879386e+00  1.63455107e+00  1.63608343e+00
  1.64042531e+00  1.65645421e+00  1.66250737e+00  1.66498568e+00
  1.67803709e+00  1.68114692e+00  1.68452016e+00  1.68594671e+00
  1.68768770e+00  1.68870611e+00  1.69374342e+00  1.69636944e+00
  1.70340289e+00  1.70515144e+00  1.71218128e+00  1.71367014e+00
  1.71581752e+00  1.72506118e+00  1.72720185e+00  1.73673744e+00
  1.73965764e+00  1.74541041e+00  1.75101395e+00  1.75532196e+00
  1.75918981e+00  1.76351325e+00  1.76663952e+00  1.77604240e+00
  1.77980105e+00  1.78454166e+00  1.78669393e+00  1.79099487e+00
  1.79646770e+00  1.80413745e+00  1.80741049e+00  1.81066564e+00
  1.81879510e+00  1.82122331e+00  1.82873727e+00  1.83173688e+00
  1.84039650e+00  1.84727447e+00  1.85327748e+00  1.85787785e+00
  1.85996733e+00  1.86508679e+00  1.87711549e+00  1.88368576e+00
  1.88776663e+00  1.89048728e+00  1.89638136e+00  1.90340078e+00
  1.90960647e+00  1.91230721e+00  1.91760588e+00  1.92764375e+00
  1.93003444e+00  1.93199828e+00  1.93846489e+00  1.94860367e+00
  1.95288056e+00  1.96297976e+00  1.96696418e+00  1.97181370e+00
  1.98026988e+00  1.98402711e+00  1.98799571e+00  2.00021823e+00
  2.00452263e+00  2.01234318e+00  2.02063270e+00  2.02738083e+00
  2.03277363e+00  2.04281711e+00  2.05343405e+00  2.05925402e+00
  2.06416652e+00  2.06657186e+00  2.06879742e+00  2.07400764e+00
  2.07892635e+00  2.09041946e+00  2.09760518e+00  2.10147152e+00
  2.10350288e+00  2.10980793e+00  2.11187254e+00  2.11814135e+00
  2.12452168e+00  2.12970445e+00  2.13861358e+00  2.14053574e+00
  2.14657124e+00  2.14993721e+00  2.15469831e+00  2.15689866e+00
  2.16637537e+00  2.17558717e+00  2.17842891e+00  2.17985517e+00
  2.18814975e+00  2.19598392e+00  2.20700629e+00  2.21138892e+00
  2.22294119e+00  2.23371274e+00  2.23746176e+00  2.24479246e+00
  2.25241452e+00  2.26357149e+00  2.26955718e+00  2.27325213e+00
  2.27795316e+00  2.28839889e+00  2.29384675e+00  2.29849719e+00
  2.30037427e+00  2.30690450e+00  2.31883111e+00  2.32002076e+00
  2.32228325e+00  2.33868380e+00  2.33887573e+00  2.34376204e+00
  2.34642747e+00  2.36959897e+00  2.37140737e+00  2.37908658e+00
  2.38581763e+00  2.39631079e+00  2.40121628e+00  2.40793688e+00
  2.41093243e+00  2.41866972e+00  2.42026351e+00  2.42306373e+00
  2.43371513e+00  2.43447268e+00  2.44060157e+00  2.44670859e+00
  2.45150346e+00  2.45660040e+00  2.46524595e+00  2.46944306e+00
  2.47560269e+00  2.48964541e+00  2.49752281e+00  2.50138712e+00
  2.50803062e+00  2.51363108e+00  2.51563283e+00  2.52351817e+00
  2.53544013e+00  2.53761637e+00  2.54255784e+00  2.54737413e+00
  2.55055043e+00  2.56569112e+00  2.57085187e+00  2.57504165e+00
  2.58522844e+00  2.58571121e+00  2.59036835e+00  2.59988580e+00
  2.60554616e+00  2.61503503e+00  2.61881251e+00  2.62177295e+00
  2.62973513e+00  2.63630911e+00  2.64047887e+00  2.64652588e+00
  2.65880238e+00  2.66634778e+00  2.67000364e+00  2.68072515e+00
  2.68321623e+00  2.68399250e+00  2.68524223e+00  2.69143859e+00
  2.69820673e+00  2.70311019e+00  2.71069106e+00  2.71260250e+00
  2.72054474e+00  2.72371724e+00  2.72906654e+00  2.73055455e+00
  2.73910896e+00  2.74414083e+00  2.74906027e+00  2.75779696e+00
  2.76112192e+00  2.76437705e+00  2.76870891e+00  2.77190252e+00
  2.77692457e+00  2.77958987e+00  2.78557418e+00  2.78964923e+00
  2.79569893e+00  2.79848644e+00  2.80523320e+00  2.80611420e+00
  2.80864746e+00  2.81401354e+00  2.82024967e+00  2.82083002e+00
  2.83065162e+00  2.83336016e+00  2.84174673e+00  2.84625720e+00
  2.84956397e+00  2.85569311e+00  2.86276156e+00  2.86440841e+00
  2.86607472e+00  2.87500982e+00  2.87820942e+00  2.88687891e+00
  2.89174439e+00  2.89414819e+00  2.90542831e+00  2.91183960e+00
  2.91361644e+00  2.91710612e+00  2.92530330e+00  2.92858742e+00
  2.93993950e+00  2.94121744e+00  2.94889872e+00  2.95470290e+00
  2.96673072e+00  2.97540408e+00  2.98234012e+00  2.99229342e+00
  2.99385872e+00  3.00015838e+00  3.00943192e+00  3.01303082e+00
  3.02184072e+00  3.03083445e+00  3.03282499e+00  3.04027789e+00
  3.04461999e+00  3.04894313e+00  3.05458824e+00  3.05878136e+00
  3.06492518e+00  3.07574851e+00  3.07739310e+00  3.08022654e+00
  3.08601597e+00  3.10173324e+00  3.10356150e+00  3.10960025e+00
  3.11518835e+00  3.11627623e+00  3.12295189e+00  3.13501676e+00
  3.13845081e+00  3.13946450e+00  3.14143713e+00  3.15977845e+00
  3.16075069e+00  3.16298976e+00  3.16662527e+00  3.17520562e+00
  3.18515060e+00  3.18929463e+00  3.19524896e+00  3.20056275e+00
  3.20328670e+00  3.20842784e+00  3.21050200e+00  3.21357640e+00
  3.21803571e+00  3.22175588e+00  3.22715298e+00  3.23004343e+00
  3.23828535e+00  3.24548584e+00  3.25068667e+00  3.25263007e+00
  3.25989150e+00  3.26634579e+00  3.26812960e+00  3.27226152e+00
  3.27467553e+00  3.28300102e+00  3.28699867e+00  3.28857733e+00
  3.29104456e+00  3.29412278e+00  3.29783188e+00  3.30294711e+00
  3.30563534e+00  3.30849264e+00  3.32236826e+00  3.32673793e+00
  3.33130551e+00  3.33342394e+00  3.33840473e+00  3.33878588e+00
  3.34479769e+00  3.35443282e+00  3.35928939e+00  3.36130920e+00
  3.36863379e+00  3.37057781e+00  3.37999728e+00  3.38224074e+00
  3.38566524e+00  3.39368539e+00  3.39412824e+00  3.39888760e+00
  3.40403120e+00  3.40624955e+00  3.40806465e+00  3.41641617e+00
  3.41970744e+00  3.42323144e+00  3.42888985e+00  3.43487665e+00
  3.44128400e+00  3.44200174e+00  3.44611645e+00  3.45235931e+00
  3.45770486e+00  3.46792686e+00  3.46885393e+00  3.47061692e+00
  3.48041225e+00  3.48461506e+00  3.48628263e+00  3.48962954e+00
  3.50161489e+00  3.50522913e+00  3.51206876e+00  3.51645730e+00
  3.52239419e+00  3.52712831e+00  3.53124323e+00  3.53407790e+00
  3.53995403e+00  3.54349518e+00  3.54815520e+00  3.55334605e+00
  3.55989605e+00  3.56408062e+00  3.56877065e+00  3.57043711e+00
  3.58028601e+00  3.58418422e+00  3.59046643e+00  3.60165202e+00
  3.60430972e+00  3.60703576e+00  3.61256176e+00  3.62089767e+00
  3.62370142e+00  3.62999043e+00  3.63322279e+00  3.63500925e+00
  3.64226940e+00  3.64926764e+00  3.65443702e+00  3.65785950e+00
  3.66154543e+00  3.66610786e+00  3.67243348e+00  3.68561324e+00
  3.68840438e+00  3.69280385e+00  3.69695303e+00  3.70332251e+00
  3.71475985e+00  3.71781692e+00  3.72563793e+00  3.72813448e+00
  3.74431468e+00  3.75602269e+00  3.76770297e+00  3.77533088e+00
  3.78039398e+00  3.78120864e+00  3.78466752e+00  3.79205460e+00
  3.80524703e+00  3.81123016e+00  3.82320382e+00  3.83464143e+00
  3.84023875e+00  3.85042867e+00  3.86184942e+00  3.86646477e+00
  3.87242355e+00  3.87956419e+00  3.89351569e+00  3.90891555e+00
  3.91475079e+00  3.92778058e+00  3.93157401e+00  3.93816723e+00
  3.94580146e+00  3.95706770e+00  3.96079083e+00  3.97499293e+00
  3.98186363e+00  3.99223453e+00  3.99772450e+00  4.00219208e+00
  4.00925778e+00  4.01620841e+00  4.02732588e+00  4.02989169e+00
  4.03750470e+00  4.05065591e+00  4.06347913e+00  4.06512068e+00
  4.07375309e+00  4.08391628e+00  4.08633280e+00  4.09122228e+00
  4.10060531e+00  4.11392757e+00  4.11892489e+00  4.12943020e+00
  4.13104276e+00  4.13755126e+00  4.14542675e+00  4.15900939e+00
  4.16798068e+00  4.17903272e+00  4.18079232e+00  4.19122768e+00
  4.20311766e+00  4.20504007e+00  4.21015880e+00  4.21788935e+00
  4.22501129e+00  4.23646851e+00  4.24419294e+00  4.25613217e+00
  4.25942957e+00  4.26035434e+00  4.26869336e+00  4.27545860e+00
  4.29403604e+00  4.29810401e+00  4.30699200e+00  4.31153105e+00
  4.32103293e+00  4.33204125e+00  4.35406992e+00  4.35637163e+00
  4.37088504e+00  4.37531449e+00  4.38429543e+00  4.39385836e+00
  4.39848528e+00  4.40551825e+00  4.42034145e+00  4.42874102e+00
  4.44012611e+00  4.44265047e+00  4.45118531e+00  4.45473704e+00
  4.46352158e+00  4.47013642e+00  4.49037777e+00  4.50137680e+00
  4.51152573e+00  4.51451142e+00  4.52295810e+00  4.52857040e+00
  4.54210560e+00  4.55575668e+00  4.56252685e+00  4.56549856e+00
  4.57184405e+00  4.58719276e+00  4.61123783e+00  4.63217634e+00
  4.65827586e+00  4.66637021e+00  4.67990361e+00  4.68554232e+00
  4.69094289e+00  4.69692662e+00  4.71351619e+00  4.72462257e+00
  4.73159492e+00  4.74458869e+00  4.76541806e+00  4.77263542e+00
  4.77857364e+00  4.78508621e+00  4.80644242e+00  4.81068468e+00
  4.81664097e+00  4.83461005e+00  4.84364911e+00  4.84784961e+00
  4.85783508e+00  4.86339876e+00  4.87034713e+00  4.87966661e+00
  4.88419392e+00  4.89035543e+00  4.90218444e+00  4.90347752e+00
  4.91311523e+00  4.92766183e+00  4.94225434e+00  4.94616989e+00
  4.95782617e+00  4.97333923e+00  4.97370978e+00  4.98179710e+00
  4.99320134e+00  4.99761952e+00  5.02440599e+00  5.03804114e+00
  5.05470626e+00  5.06737955e+00  5.07278885e+00  5.07448025e+00
  5.08411575e+00  5.09064250e+00  5.10489915e+00  5.11224683e+00
  5.11558909e+00  5.12629803e+00  5.12821204e+00  5.14392086e+00
  5.15526281e+00  5.16020726e+00  5.17000691e+00  5.17375510e+00
  5.18170939e+00  5.18942290e+00  5.20008830e+00  5.20276452e+00
  5.21670981e+00  5.22702654e+00  5.23399363e+00  5.25490959e+00
  5.26457086e+00  5.27887407e+00  5.30098396e+00  5.31655364e+00
  5.32182710e+00  5.32669209e+00  5.33832273e+00  5.35043589e+00
  5.35952881e+00  5.36737527e+00  5.38029742e+00  5.39557064e+00
  5.41421707e+00  5.42733701e+00  5.43474617e+00  5.44846826e+00
  5.46013603e+00  5.47204067e+00  5.49170072e+00  5.50320849e+00
  5.52482644e+00  5.53088430e+00  5.53201856e+00  5.54669128e+00
  5.56608601e+00  5.57501289e+00  5.59810324e+00  5.60988102e+00
  5.62698697e+00  5.63698596e+00  5.64595439e+00  5.66405793e+00
  5.67785298e+00  5.71371120e+00  5.73091317e+00  5.73129878e+00
  5.78039054e+00  5.79651489e+00  5.80256679e+00  5.82569108e+00
  5.87210880e+00  5.87625890e+00  5.91660340e+00  5.93689668e+00
  5.93986254e+00  5.96980677e+00  5.97463676e+00  5.99216134e+00
  6.02113360e+00  6.08286353e+00  6.10494887e+00  6.14152957e+00
  6.16433180e+00  6.18419043e+00  6.21027138e+00  6.27200083e+00
  6.37708783e+00  6.37935657e+00  6.41055978e+00  6.48650621e+00
  6.56027439e+00  6.75933542e+00  6.80199882e+00  6.89234275e+00
  7.09607534e+00  7.35161646e+00  2.23638667e+01  2.23765922e+01
  2.23994171e+01  2.25289210e+01  2.25622890e+01  2.26405522e+01
  2.26515343e+01  2.26569429e+01  2.26599797e+01  2.26750081e+01
  2.26945748e+01  2.28356943e+01  2.29566850e+01  2.29665023e+01
  2.30342849e+01  2.31182696e+01  2.31874530e+01  2.32118733e+01
  2.33451812e+01  2.34085216e+01  2.35552698e+01  2.36530941e+01
  3.21215210e+01  3.22263930e+01  3.24420059e+01  3.26187349e+01
  3.27201809e+01  3.28372814e+01  3.31837689e+01  4.40618912e+01]
nelec by numeric integration = 215.99996096291727
    CPU time for vxc    135.35 sec, wall time      9.23 sec
    CPU time for df vj and vk    433.06 sec, wall time     33.82 sec
    CPU time for df vj and vk    336.26 sec, wall time     22.28 sec
E1 = -7673.040828133067  Ecoul = 3583.7191227181584  Exc = -186.3184950826166
Extra cycle  E= -1313.23681321907  delta_E= -5.46e-12  |g|= 9e-06  |ddm|= 1.82e-05
    CPU time for scf_cycle   3397.30 sec, wall time    277.06 sec
    CPU time for SCF   3397.30 sec, wall time    277.06 sec
converged SCF energy = -1313.23681321907
SCF Done after  277.0624 seconds
after SCF memory used: 23368.7109375 MB
Converting <class 'pyscf.df.df_jk.density_fit.<locals>.DFHF'> to RHF
Converting <class 'pyscf.df.df_jk.density_fit.<locals>.DFHF'> to RHF
a_x = 0.56
beta = 8.0
alpha = 4.58
hdiag (106272,)
n_occ =  108
n_vir =  984
max_vir =  262
Q-Gamma tensors building time = 25.1694
after Q matrix memory used: 24107.703125 MB
-------------------------------------------------------------------
|---------------   In-house Developed Davidson Starts   -----------|
Residual conv = 1e-05
Number of excited states = 20
Initial guess:   sTDA
Preconditioner:  sTDA
A matrix size =  106272 * 106272
sTDA nstate = 28
sTDA A diagonalization: threshold = 0.001 ; in 10 steps  13.2031 seconds
sTDA excitation energies:
[3.99317998 4.33271812 4.50521347 4.81409764 4.82762203 5.1052043
 5.29211967 5.33913799 5.51802842 5.76192082 5.85050747 5.89718936
 5.99477455 6.01285424 6.0608774  6.15320773 6.23140869 6.27191327
 6.42070069 6.4536366  6.48649162 6.53834106 6.54092686 6.60740263
 6.69516089 6.74315742 6.78564846 6.89035444]
Intial guess time: 13.3299 seconds
    CPU time for df vj and vk  12281.27 sec, wall time    892.96 sec
    CPU time for df vj and vk   9481.69 sec, wall time    635.91 sec
Iteration  0
subspace size:  28
maximum residual norm 0.11361036545790396
sTDA Preconditioning Done after  17 steps;  14.2077 seconds
subgencost 1.2093 8.51 %
mvcost 3.5089 24.7 %
GScost 8.3699 58.91 %
subcost 0.0996 0.7 %
m,new_m 28 48
    CPU time for df vj and vk   8646.11 sec, wall time    629.75 sec
    CPU time for df vj and vk   6622.37 sec, wall time    440.81 sec
new generated guesses: 20
Iteration  1
subspace size:  48
maximum residual norm 0.028923893671448583
sTDA Preconditioning Done after  20 steps;  14.0637 seconds
subgencost 1.479 10.52 %
mvcost 3.2225 22.91 %
GScost 8.0717 57.39 %
subcost 0.1006 0.72 %
m,new_m 48 68
    CPU time for df vj and vk   8653.89 sec, wall time    628.38 sec
    CPU time for df vj and vk   6620.18 sec, wall time    438.86 sec
new generated guesses: 20
Iteration  2
subspace size:  68
maximum residual norm 0.017068269306177046
sTDA Preconditioning Done after  18 steps;  12.791 seconds
subgencost 1.2171 9.52 %
mvcost 3.2318 25.27 %
GScost 7.2554 56.72 %
subcost 0.0857 0.67 %
m,new_m 68 88
    CPU time for df vj and vk   8656.44 sec, wall time    633.03 sec
    CPU time for df vj and vk   6630.21 sec, wall time    441.70 sec
new generated guesses: 20
Iteration  3
subspace size:  88
maximum residual norm 0.0068513600823019065
sTDA Preconditioning Done after  24 steps;  13.3077 seconds
subgencost 1.6953 12.74 %
mvcost 3.2027 24.07 %
GScost 7.153 53.75 %
subcost 0.129 0.97 %
m,new_m 88 108
    CPU time for df vj and vk   8668.34 sec, wall time    631.64 sec
    CPU time for df vj and vk   6615.59 sec, wall time    440.35 sec
new generated guesses: 20
Iteration  4
subspace size:  108
maximum residual norm 0.002312093574793805
sTDA Preconditioning Done after  15 steps;  11.0443 seconds
subgencost 0.9407 8.52 %
mvcost 2.9574 26.78 %
GScost 6.1684 55.85 %
subcost 0.0648 0.59 %
m,new_m 108 128
    CPU time for df vj and vk   8656.49 sec, wall time    629.43 sec
    CPU time for df vj and vk   6635.49 sec, wall time    439.25 sec
new generated guesses: 20
Iteration  5
subspace size:  128
maximum residual norm 0.0006096015401272602
sTDA Preconditioning Done after  13 steps;  17.7217 seconds
subgencost 1.3933 7.86 %
mvcost 3.9499 22.29 %
GScost 10.9543 61.81 %
subcost 0.057 0.32 %
m,new_m 128 148
    CPU time for df vj and vk   8673.96 sec, wall time    632.88 sec
    CPU time for df vj and vk   6633.28 sec, wall time    441.75 sec
new generated guesses: 20
Iteration  6
subspace size:  148
maximum residual norm 0.00013871246298502996
sTDA Preconditioning Done after  16 steps;  4.522 seconds
subgencost 0.4501 9.95 %
mvcost 1.8777 41.52 %
GScost 1.8237 40.33 %
subcost 0.0244 0.54 %
m,new_m 148 155
    CPU time for df vj and vk   3034.27 sec, wall time    223.01 sec
    CPU time for df vj and vk   2325.64 sec, wall time    154.00 sec
new generated guesses: 7
Iteration  7
subspace size:  155
maximum residual norm 2.9267941883877996e-05
sTDA Preconditioning Done after  22 steps;  1.2644 seconds
subgencost 0.2108 16.68 %
mvcost 0.6619 52.35 %
GScost 0.2522 19.95 %
subcost 0.01 0.79 %
m,new_m 155 157
    CPU time for df vj and vk    869.39 sec, wall time     66.11 sec
    CPU time for df vj and vk    669.20 sec, wall time     44.44 sec
new generated guesses: 2
Iteration  8
subspace size:  157
maximum residual norm 7.465463238819676e-06
Davidson procedure aborted
Davidson done after  9741.8316 seconds
Total steps = 9
Final subspace shape =  (157, 157)
Preconditioning time: 89.2209 0.92 %
In-house Davidson time: 9741.8347 seconds
Excited State energies (eV) =
[4.26302235 4.51699288 4.81893068 4.85317948 5.07018944 5.39537277
 5.46027462 5.73072669 5.78772538 6.00519497 6.06485607 6.14992103
 6.18844283 6.23832677 6.50018018 6.51974    6.59171302 6.6168304
 6.62436237 6.68450722]
|---------------   In-house Developed Davidson Done   -----------|
-------------------------------------------------------------------
|---------------   In-house Developed Davidson Starts   -----------|
Residual conv = 1e-05
Number of excited states = 20
Initial guess:   Adiag
Preconditioner:  Adiag
A matrix size =  106272 * 106272
Intial guess time: 0.0413 seconds
    CPU time for df vj and vk  12088.03 sec, wall time    877.42 sec
    CPU time for df vj and vk   9209.60 sec, wall time    613.85 sec
Iteration  0
subspace size:  28
maximum residual norm 0.1439138130279001
m,new_m 28 48
    CPU time for df vj and vk   8707.53 sec, wall time    633.13 sec
    CPU time for df vj and vk   6663.07 sec, wall time    441.38 sec
new generated guesses: 20
Iteration  1
subspace size:  48
maximum residual norm 0.04549730305532507
m,new_m 48 68
    CPU time for df vj and vk   9121.42 sec, wall time    670.32 sec
    CPU time for df vj and vk   7026.28 sec, wall time    468.20 sec
new generated guesses: 20
Iteration  2
subspace size:  68
maximum residual norm 0.07470148735716209
m,new_m 68 88
    CPU time for df vj and vk   9156.62 sec, wall time    664.82 sec
    CPU time for df vj and vk   6868.88 sec, wall time    462.13 sec
new generated guesses: 20
Iteration  3
subspace size:  88
maximum residual norm 0.0380631304033165
m,new_m 88 108
    CPU time for df vj and vk   9063.10 sec, wall time    671.35 sec
    CPU time for df vj and vk   6953.75 sec, wall time    476.12 sec
new generated guesses: 20
Iteration  4
subspace size:  108
maximum residual norm 0.014977897232588014
m,new_m 108 128
    CPU time for df vj and vk   8981.71 sec, wall time    659.08 sec
    CPU time for df vj and vk   6849.93 sec, wall time    464.21 sec
new generated guesses: 20
Iteration  5
subspace size:  128
maximum residual norm 0.009219527102461583
m,new_m 128 148
    CPU time for df vj and vk   8977.10 sec, wall time    659.56 sec
    CPU time for df vj and vk   6683.25 sec, wall time    442.73 sec
new generated guesses: 20
Iteration  6
subspace size:  148
maximum residual norm 0.02978584856399645
m,new_m 148 168
    CPU time for df vj and vk   8921.30 sec, wall time    638.79 sec
    CPU time for df vj and vk   6894.14 sec, wall time    446.74 sec
new generated guesses: 20
Iteration  7
subspace size:  168
maximum residual norm 0.019927026700078034
m,new_m 168 188
    CPU time for df vj and vk   9033.41 sec, wall time    644.69 sec
    CPU time for df vj and vk   6897.85 sec, wall time    450.01 sec
new generated guesses: 20
Iteration  8
subspace size:  188
maximum residual norm 0.008829550849069145
m,new_m 188 207
    CPU time for df vj and vk   8560.81 sec, wall time    612.44 sec
    CPU time for df vj and vk   6433.62 sec, wall time    423.03 sec
new generated guesses: 19
Iteration  9
subspace size:  207
maximum residual norm 0.003541095149535983
m,new_m 207 221
    CPU time for df vj and vk   6167.50 sec, wall time    444.69 sec
    CPU time for df vj and vk   4716.68 sec, wall time    308.93 sec
new generated guesses: 14
Iteration  10
subspace size:  221
maximum residual norm 0.0012622261199058346
m,new_m 221 232
    CPU time for df vj and vk   4876.39 sec, wall time    353.49 sec
    CPU time for df vj and vk   3649.19 sec, wall time    244.06 sec
new generated guesses: 11
Iteration  11
subspace size:  232
maximum residual norm 0.0004184722578147126
m,new_m 232 243
    CPU time for df vj and vk   4744.15 sec, wall time    348.89 sec
    CPU time for df vj and vk   3631.67 sec, wall time    243.05 sec
new generated guesses: 11
Iteration  12
subspace size:  243
maximum residual norm 0.00014740880576552076
m,new_m 243 249
    CPU time for df vj and vk   2582.94 sec, wall time    191.20 sec
    CPU time for df vj and vk   1977.49 sec, wall time    131.72 sec
new generated guesses: 6
Iteration  13
subspace size:  249
maximum residual norm 5.5064005547102376e-05
m,new_m 249 253
    CPU time for df vj and vk   1721.85 sec, wall time    128.10 sec
    CPU time for df vj and vk   1322.61 sec, wall time     88.45 sec
new generated guesses: 4
Iteration  14
subspace size:  253
maximum residual norm 1.742715108586591e-05
m,new_m 253 255
    CPU time for df vj and vk    879.00 sec, wall time     67.50 sec
    CPU time for df vj and vk    671.58 sec, wall time     44.77 sec
new generated guesses: 2
Iteration  15
subspace size:  255
maximum residual norm 5.726235909440002e-06
Davidson procedure aborted
Davidson done after  16038.7869 seconds
Total steps = 16
Final subspace shape =  (255, 255)
Preconditioning time: 0.6171 0.0 %
In-house Davidson time: 16038.8565 seconds
Excited State energies (eV) =
[4.26302235 4.51699288 4.81893068 4.85317948 5.07018944 5.39537277
 5.46027461 5.73072668 5.78772538 6.00519497 6.06485607 6.14992103
 6.18844283 6.23832677 6.50018018 6.51974    6.59171302 6.6168304
 6.62436237 6.68450722]
|---------------   In-house Developed Davidson Done   -----------|
xyzfile = 57_Cypridina_luciferin.xyz
checkfile = True
method = RKS
functional = wb97x
basis_set = def2-tzvp
density_fit = True
grid_level = 3
nstates = 20
pytd = False
TDA = True
TDDFT = False
dynpol = False
dynpol_omega = []
stapol = False
sTDA = False
sTDDFT = False
Truncate_test = False
truncate_virtual = 40.0
TDA_options = [0, 1]
TDDFT_options = [0]
dynpol_options = [0]
stapol_options = [0]
TDA_tolerance = 1e-05
TDDFT_tolerance = 1e-05
dynpol_tolerance = 1e-05
stapol_tolerance = 1e-05
max = 35
TDA_initialTOL = 0.001
TDDFT_initialTOL = 0.001
dynpol_initprecTOL = 0.01
stapol_initprecTOL = 0.01
TDA_precondTOL = 0.01
TDDFT_precondTOL = 0.01
TDA_extrainitial = 8
TDDFT_extrainitial = 8
TDDFT_extrainitial_3n = False
eigensolver_tol = 1e-05
memory = 50000
verbose = 5
beta = []
alpha = []
