curpath /scratch/pbsjobs/job.16219532.hpc
lib.num_threads() =  20
at beginning memory used: 0.05 GB
mol.max_memory 50000


System: uname_result(system='Linux', node='compt253', release='3.10.0-1127.el7.x86_64', version='#1 SMP Tue Feb 18 16:39:12 EST 2020', machine='x86_64', processor='x86_64')  Threads 20
Python 3.7.0 (default, Aug 23 2018, 14:24:33) 
[GCC 6.3.0]
numpy 1.18.1  scipy 1.4.1
Date: Mon Aug 30 19:02:45 2021
PySCF version 1.7.4
PySCF path  /home/zzz6/.local/lib/python3.7/site-packages/pyscf

[CONFIG] conf_file None
[INPUT] verbose = 5
[INPUT] max_memory = 50000 
[INPUT] num. atoms = 47
[INPUT] num. electrons = 180
[INPUT] charge = 0
[INPUT] spin (= nelec alpha-beta = 2S) = 0
[INPUT] symmetry False subgroup None
[INPUT] Mole.unit = angstrom
[INPUT]  1 C      3.315519413661  -1.070082777694  -0.019443483869 AA    6.265423652498  -2.022163380456  -0.036742859419 Bohr
[INPUT]  2 C      2.402295522455  -2.155449564641   0.009526954679 AA    4.539680607710  -4.073209352484   0.018003335144 Bohr
[INPUT]  3 C      2.870103283735  -3.481859645953   0.016910944004 AA    5.423709155473  -6.579761135026   0.031957052676 Bohr
[INPUT]  4 C      4.251094170790  -3.701229804274  -0.002413625035 AA    8.033403712528  -6.994310654155  -0.004561090284 Bohr
[INPUT]  5 C      5.159883025130  -2.619897141647  -0.030135547162 AA    9.750765752288  -4.950888072244  -0.056947930750 Bohr
[INPUT]  6 C      4.701828583611  -1.298164492462  -0.038395847900 AA    8.885168307676  -2.453175355388  -0.072557636851 Bohr
[INPUT]  7 C      2.529860756828   0.155426561649  -0.015286114429 AA    4.780743963691   0.293713634000  -0.028886569779 Bohr
[INPUT]  8 C      1.063311969716  -1.593860125701   0.019668529814 AA    2.009368407735  -3.011959118441   0.037168134620 Bohr
[INPUT]  9 H      2.171867027772  -4.324663561031   0.036803469853 AA    4.104233861462  -8.172429711235   0.069548478455 Bohr
[INPUT] 10 H      4.635842187979  -4.726419122921   0.003719280105 AA    8.760472091984  -8.931637692228   0.007028420780 Bohr
[INPUT] 11 H      6.236001320635  -2.821070905026  -0.045222218166 AA   11.784334608426  -5.331051388477  -0.085457607079 Bohr
[INPUT] 12 H      5.409001914327  -0.462810742460  -0.058663864728 AA   10.221532225326  -0.874585550756  -0.110858637744 Bohr
[INPUT] 13 O      1.190838702648  -0.205514481231   0.006086333317 AA    2.250359006538  -0.388366084158   0.011501503072 Bohr
[INPUT] 14 C     -0.151228305472  -2.219218809007   0.037693117795 AA   -0.285780079625  -4.193715759507   0.071229669414 Bohr
[INPUT] 15 H     -0.088890113274  -3.312456298883   0.087791805131 AA   -0.167977969268  -6.259635204479   0.165902467680 Bohr
[INPUT] 16 C      2.946948703728   1.456208396933  -0.030026219953 AA    5.568925953188   2.751835050495  -0.056741332268 Bohr
[INPUT] 17 H      4.034187187609   1.578806164048  -0.088413740928 AA    7.623508919810   2.983511253826  -0.167077756001 Bohr
[INPUT] 18 C      2.172121030108   2.686080942563   0.012237541112 AA    4.104713856312   5.075957329857   0.023125601139 Bohr
[INPUT] 19 C      0.774740796246   2.734634086911   0.259302866196 AA    1.464047922433   5.167709475162   0.490011400425 Bohr
[INPUT] 20 C      2.847217948487   3.918668053902  -0.187776364810 AA    5.380462139587   7.405209394956  -0.354845902158 Bohr
[INPUT] 21 C      0.095256315086   3.955931747019   0.288892587142 AA    0.180008347147   7.475627569338   0.545927869116 Bohr
[INPUT] 22 H      0.233773585480   1.806280034502   0.447628728000 AA    0.441768051716   3.413374569479   0.845895701407 Bohr
[INPUT] 23 C      2.162264506541   5.136335062086  -0.161348015110 AA    4.086087726230   9.706266551343  -0.304903559301 Bohr
[INPUT] 24 H      3.927984344831   3.906483107359  -0.370763760233 AA    7.422814633309   7.382183183148  -0.700641963755 Bohr
[INPUT] 25 C      0.778388141834   5.163734653419   0.074104726014 AA    1.470940406675   9.758044274888   0.140037636703 Bohr
[INPUT] 26 H     -0.982476970720   3.964543060997   0.487298736458 AA   -1.856612398352   7.491900594329   0.920861152752 Bohr
[INPUT] 27 H      2.710219841812   6.070939670319  -0.324024110707 AA    5.121573238386  11.472413295659  -0.612316826991 Bohr
[INPUT] 28 H      0.239561445671   6.116880327812   0.095605766116 AA    0.452705522323  11.559228556304   0.180668713888 Bohr
[INPUT] 29 C     -1.490132748886  -1.665779472199   0.005862225538 AA   -2.815942784640  -3.147866986379   0.011078000747 Bohr
[INPUT] 30 C     -1.788148844583  -0.295338792493  -0.214718314812 AA   -3.379111586220  -0.558109431772  -0.405758808923 Bohr
[INPUT] 31 C     -2.599208215651  -2.531742216169   0.186138972772 AA   -4.911791668299  -4.784299406560   0.351751679646 Bohr
[INPUT] 32 C     -3.096757845503   0.176917086593  -0.236419327351 AA   -5.852024202099   0.334324840416  -0.446767779246 Bohr
[INPUT] 33 H     -0.971623210880   0.405750489078  -0.394004055412 AA   -1.836101764833   0.766757299266  -0.744559756697 Bohr
[INPUT] 34 C     -3.913359380705  -2.073726225398   0.171821735673 AA   -7.395177456531  -3.918774623330   0.324696022668 Bohr
[INPUT] 35 H     -2.415752395783  -3.600812300777   0.345738549409 AA   -4.565110412792  -6.804549074433   0.653351169088 Bohr
[INPUT] 36 C     -4.202580133682  -0.695480463878  -0.031435743763 AA   -7.941725469197  -1.314267601714  -0.059404946234 Bohr
[INPUT] 37 H     -3.262290871257   1.240988742969  -0.420687105628 AA   -6.164836285344   2.345128847880  -0.794983413772 Bohr
[INPUT] 38 H     -4.723246754029  -2.791785164136   0.318960824325 AA   -8.925642783857  -5.275709358841   0.602748602440 Bohr
[INPUT] 39 N     -5.503318547807  -0.223812987047  -0.035329308939 AA  -10.399764831595  -0.422945248641  -0.066762718065 Bohr
[INPUT] 40 C     -5.767588455915   1.181440955015  -0.298299744275 AA  -10.899162580882   2.232599837323  -0.563704819707 Bohr
[INPUT] 41 H     -6.851013902177   1.359235281267  -0.232444141680 AA  -12.946539950702   2.568582420440  -0.439255767034 Bohr
[INPUT] 42 H     -5.266515650817   1.834250520182   0.442463484902 AA   -9.952272210780   3.466231126986   0.836134806586 Bohr
[INPUT] 43 H     -5.425895390234   1.488612179940  -1.307486677878 AA  -10.253456268083   2.813069325779  -2.470791732707 Bohr
[INPUT] 44 C     -6.613062291936  -1.148746627269   0.124089227150 AA  -12.496876576448  -2.170816512056   0.234494654322 Bohr
[INPUT] 45 H     -6.550464271175  -1.696889097580   1.084251175874 AA  -12.378583461269  -3.206655658187   2.048937772639 Bohr
[INPUT] 46 H     -7.555256046532  -0.581362718038   0.115862515576 AA  -14.277364728909  -1.098616316125   0.218948422542 Bohr
[INPUT] 47 H     -6.652149379701  -1.898225586648  -0.692443764187 AA  -12.570740467330  -3.587126481407  -1.308529070976 Bohr
[INPUT] ---------------- BASIS SET ---------------- 
[INPUT] l, kappa, [nprim/nctr], expnt,             c_1 c_2 ...
[INPUT] O
[INPUT] 0    0    [6    /1   ]  27032.382631      0.00021726302465
                                4052.3871392      0.0016838662199
                                922.3272271       0.0087395616265
                                261.24070989      0.035239968808
                                85.354641351      0.11153519115
                                31.035035245      0.25588953961
[INPUT] 0    0    [2    /1   ]  12.260860728      0.39768730901
                                4.9987076005      0.2462784943
[INPUT] 0    0    [1    /1   ]  1.1703108158         1
[INPUT] 0    0    [1    /1   ]  0.46474740994        1
[INPUT] 0    0    [1    /1   ]  0.18504536357        1
[INPUT] 1    0    [4    /1   ]  63.274954801      0.0060685103418
                                14.627049379      0.041912575824
                                4.4501223456      0.16153841088
                                1.5275799647      0.35706951311
[INPUT] 1    0    [1    /1   ]  0.52935117943        1
[INPUT] 1    0    [1    /1   ]  0.1747842127         1
[INPUT] 2    0    [1    /1   ]  2.314                1
[INPUT] 2    0    [1    /1   ]  0.645                1
[INPUT] 3    0    [1    /1   ]  1.428                1
[INPUT] H
[INPUT] 0    0    [3    /1   ]  34.061341         0.0060251978
                                5.1235746         0.045021094
                                1.1646626         0.20189726
[INPUT] 0    0    [1    /1   ]  0.32723041           1
[INPUT] 0    0    [1    /1   ]  0.10307241           1
[INPUT] 1    0    [1    /1   ]  0.8                  1
[INPUT] C
[INPUT] 0    0    [6    /1   ]  13575.349682      0.00022245814352
                                2035.233368       0.0017232738252
                                463.22562359      0.0089255715314
                                131.20019598      0.035727984502
                                42.853015891      0.11076259931
                                15.584185766      0.24295627626
[INPUT] 0    0    [2    /1   ]  6.2067138508      0.41440263448
                                2.5764896527      0.23744968655
[INPUT] 0    0    [1    /1   ]  0.57696339419        1
[INPUT] 0    0    [1    /1   ]  0.22972831358        1
[INPUT] 0    0    [1    /1   ]  0.095164440028       1
[INPUT] 1    0    [4    /1   ]  34.697232244      0.0053333657805
                                7.9582622826      0.035864109092
                                2.3780826883      0.14215873329
                                0.81433208183     0.34270471845
[INPUT] 1    0    [1    /1   ]  0.28887547253        1
[INPUT] 1    0    [1    /1   ]  0.10056823671        1
[INPUT] 2    0    [1    /1   ]  1.097                1
[INPUT] 2    0    [1    /1   ]  0.318                1
[INPUT] 3    0    [1    /1   ]  0.761                1
[INPUT] N
[INPUT] 0    0    [6    /1   ]  19730.800647      0.00021887984991
                                2957.8958745      0.0016960708803
                                673.22133595      0.0087954603538
                                190.68249494      0.035359382605
                                62.295441898      0.11095789217
                                22.654161182      0.24982972552
[INPUT] 0    0    [2    /1   ]  8.9791477428      0.40623896148
                                3.686300237       0.24338217176
[INPUT] 0    0    [1    /1   ]  0.84660076805        1
[INPUT] 0    0    [1    /1   ]  0.33647133771        1
[INPUT] 0    0    [1    /1   ]  0.13647653675        1
[INPUT] 1    0    [4    /1   ]  49.20038051       0.0055552416751
                                11.346790537      0.038052379723
                                3.4273972411      0.14953671029
                                1.1785525134      0.3494930523
[INPUT] 1    0    [1    /1   ]  0.41642204972        1
[INPUT] 1    0    [1    /1   ]  0.14260826011        1
[INPUT] 2    0    [1    /1   ]  1.654                1
[INPUT] 2    0    [1    /1   ]  0.469                1
[INPUT] 3    0    [1    /1   ]  1.093                1

nuclear repulsion = 2048.97056790043
number of shells = 370
number of NR pGTOs = 1364
number of NR cGTOs = 932
basis = def2-tzvp
ecp = {}
CPU time:         2.28
RKS
Density fitting turned on
Molecule built
Calculating SCF Energy...


******** <class 'pyscf.df.df_jk.density_fit.<locals>.DFHF'> ********
method = DFHF-RKS-RHF
initial guess = chkfile
damping factor = 0
level_shift factor = 0
DIIS = <class 'pyscf.scf.diis.CDIIS'>
diis_start_cycle = 1
diis_space = 8
SCF conv_tol = 1e-10
SCF conv_tol_grad = None
SCF max_cycles = 50
direct_scf = True
direct_scf_tol = 1e-13
chkfile to save SCF result = 47_Dihydroisobenzofuran_C5_pbe0.chk
max_memory 50000 MB (current use 55 MB)
XC functionals = pbe0
small_rho_cutoff = 1e-07
radial grids: 
    Treutler-Ahlrichs [JCP 102, 346 (1995); DOI:10.1063/1.469408] (M4) radial grids
    
becke partition: Becke, JCP 88, 2547 (1988); DOI:10.1063/1.454033
pruning grids: <function nwchem_prune at 0x7f03d763fe18>
grids dens level: 3
symmetrized grids: False
atomic radii adjust function: <function treutler_atomic_radii_adjust at 0x7f03d763fd90>
Set gradient conv threshold to 1e-05
atom C rad-grids = 75, ang-grids = [ 50  50  50  50  50  50  50  50  50  50  50  50  50  50  50  50  50  50
  50  50  50  50  50  86  86  86  86  86  86  86  86  86  86 266 266 266
 266 266 266 266 302 302 302 302 302 302 302 302 302 302 302 302 302 302
 302 302 302 302 302 302 266 266 266 266 266 266 266 266 266 266 266 266
 266 266 266]
atom H rad-grids = 50, ang-grids = [ 50  50  50  50  50  50  50  50  50  50  50  50  50  50  86  86  86  86
 266 266 266 266 302 302 302 302 302 302 302 302 302 302 302 302 302 266
 266 266 266 266 266 266 266 266 266 266 266 266 266 266]
atom O rad-grids = 75, ang-grids = [ 50  50  50  50  50  50  50  50  50  50  50  50  50  50  50  50  50  50
  50  50  50  50  86  86  86  86  86  86  86  86  86 266 266 266 266 266
 266 266 302 302 302 302 302 302 302 302 302 302 302 302 302 302 302 302
 302 302 302 266 266 266 266 266 266 266 266 266 266 266 266 266 266 266
 266 266 266]
atom N rad-grids = 75, ang-grids = [ 50  50  50  50  50  50  50  50  50  50  50  50  50  50  50  50  50  50
  50  50  50  50  50  86  86  86  86  86  86  86  86  86 266 266 266 266
 266 266 266 302 302 302 302 302 302 302 302 302 302 302 302 302 302 302
 302 302 302 302 266 266 266 266 266 266 266 266 266 266 266 266 266 266
 266 266 266]
tot grids = 572460
Drop grids 100757
    CPU time for setting up grids     91.28 sec, wall time      5.19 sec
nelec by numeric integration = 179.99973225767664
    CPU time for vxc    154.95 sec, wall time      8.89 sec
******** <class 'pyscf.df.df.DF'> ********
auxbasis = None
max_memory = 50000
_cderi_to_save = /tmp/job.16219532.hpc/tmpoavj1_gn
Default auxbasis def2-tzvp-jkfit is used for O def2-tzvp
Default auxbasis def2-tzvp-jkfit is used for H def2-tzvp
Default auxbasis def2-tzvp-jkfit is used for C def2-tzvp
Default auxbasis def2-tzvp-jkfit is used for N def2-tzvp
num shells = 776, num cGTOs = 2332
size of aux basis 2332
int3c2e [1/1], AO [0:370], nrow = 434778
    CPU time for cholesky_eri    151.31 sec, wall time     25.59 sec
    CPU time for df vj and vk    502.33 sec, wall time     48.73 sec
E1 = -5501.831005000006  Ecoul = 2548.8804730462402  Exc = -152.296805782598
init E= -1056.27676983593
cond(S) = 1636224.8822484282
    CPU time for initialize scf    757.84 sec, wall time     63.58 sec
  HOMO = -0.180723463714095  LUMO = -0.0644141700315072
  mo_energy =
[-1.92593176e+01 -1.44140074e+01 -1.02944013e+01 -1.02890979e+01
 -1.02714152e+01 -1.02621546e+01 -1.02616935e+01 -1.02485754e+01
 -1.02475161e+01 -1.02438021e+01 -1.02431722e+01 -1.02409285e+01
 -1.02402758e+01 -1.02398624e+01 -1.02308548e+01 -1.02303013e+01
 -1.02282895e+01 -1.02276969e+01 -1.02261187e+01 -1.02255471e+01
 -1.02252212e+01 -1.02244698e+01 -1.02236803e+01 -1.02227568e+01
 -1.02218087e+01 -1.02214097e+01 -1.12172821e+00 -9.80781686e-01
 -8.92499279e-01 -8.76345797e-01 -8.71148085e-01 -8.31939069e-01
 -8.06530140e-01 -7.92250813e-01 -7.81391232e-01 -7.70782600e-01
 -7.61016728e-01 -7.54765969e-01 -7.45086063e-01 -7.27785920e-01
 -6.85654196e-01 -6.60409643e-01 -6.45974266e-01 -6.29731651e-01
 -6.21220094e-01 -6.10869944e-01 -6.05535235e-01 -5.83843755e-01
 -5.71130872e-01 -5.45149003e-01 -5.33138999e-01 -5.18454554e-01
 -5.07240513e-01 -4.96253984e-01 -4.89711147e-01 -4.84309488e-01
 -4.78367953e-01 -4.71207909e-01 -4.70580695e-01 -4.63305473e-01
 -4.55056084e-01 -4.51800083e-01 -4.45903347e-01 -4.33282800e-01
 -4.29905744e-01 -4.24553098e-01 -4.23299266e-01 -4.18239690e-01
 -4.11507271e-01 -4.00968135e-01 -3.97934727e-01 -3.93144543e-01
 -3.86854964e-01 -3.85193085e-01 -3.81349934e-01 -3.79508329e-01
 -3.70357515e-01 -3.61392759e-01 -3.49639948e-01 -3.40166196e-01
 -3.37722680e-01 -3.35043498e-01 -3.08405992e-01 -2.87723911e-01
 -2.79913476e-01 -2.62393553e-01 -2.60215947e-01 -2.53490766e-01
 -2.18379119e-01 -1.80723464e-01 -6.44141700e-02 -3.96571946e-02
 -4.43672657e-03 -2.51851393e-03  5.89037904e-03  1.53502591e-02
  3.50547371e-02  5.39672188e-02  5.42692765e-02  6.17624661e-02
  6.26549368e-02  6.57023319e-02  7.21095055e-02  7.91851929e-02
  8.41559110e-02  9.61519910e-02  9.83837280e-02  9.92863822e-02
  1.03971137e-01  1.07873558e-01  1.10269452e-01  1.18260021e-01
  1.22586903e-01  1.25196176e-01  1.31441427e-01  1.36779332e-01
  1.37985428e-01  1.43698901e-01  1.46890743e-01  1.50501890e-01
  1.54008522e-01  1.57764963e-01  1.63384995e-01  1.64531394e-01
  1.69586865e-01  1.74037007e-01  1.76682299e-01  1.80553450e-01
  1.87478993e-01  1.89868163e-01  1.94444775e-01  1.97933457e-01
  2.06992815e-01  2.11547977e-01  2.14215284e-01  2.23025774e-01
  2.25269738e-01  2.25885369e-01  2.29337902e-01  2.36015152e-01
  2.38072045e-01  2.38476451e-01  2.40386741e-01  2.43037892e-01
  2.47365852e-01  2.51728122e-01  2.55077741e-01  2.56968050e-01
  2.63129289e-01  2.67309294e-01  2.78254198e-01  2.79510989e-01
  2.81565280e-01  2.84592135e-01  2.86037571e-01  2.89296039e-01
  2.96999500e-01  3.00312840e-01  3.00993956e-01  3.02019970e-01
  3.09963911e-01  3.14705690e-01  3.21198623e-01  3.22541692e-01
  3.26500060e-01  3.28468861e-01  3.32500425e-01  3.41346404e-01
  3.41746945e-01  3.46673761e-01  3.47882977e-01  3.49832121e-01
  3.53746591e-01  3.56765034e-01  3.61421074e-01  3.63519249e-01
  3.65370703e-01  3.67702512e-01  3.72780203e-01  3.76048289e-01
  3.77717547e-01  3.81434818e-01  3.83594829e-01  3.89375443e-01
  3.93888881e-01  3.98825794e-01  4.03695502e-01  4.09044032e-01
  4.10113940e-01  4.14545881e-01  4.16299848e-01  4.18918594e-01
  4.21717416e-01  4.26291046e-01  4.29972196e-01  4.36597030e-01
  4.38510514e-01  4.39741020e-01  4.47492743e-01  4.51511588e-01
  4.54927020e-01  4.57408059e-01  4.62324667e-01  4.65410253e-01
  4.65940075e-01  4.73093736e-01  4.77124572e-01  4.78900360e-01
  4.82698184e-01  4.84548223e-01  4.88233309e-01  4.90688020e-01
  4.93635799e-01  4.95950211e-01  5.02300492e-01  5.05702655e-01
  5.08466436e-01  5.17008022e-01  5.18712304e-01  5.26589348e-01
  5.27233497e-01  5.30062368e-01  5.33551386e-01  5.41446845e-01
  5.48836314e-01  5.55278704e-01  5.57341772e-01  5.69808684e-01
  5.78407965e-01  5.80385847e-01  5.82768379e-01  5.92749466e-01
  5.97154412e-01  5.99569528e-01  6.02272727e-01  6.03963515e-01
  6.12662484e-01  6.19625679e-01  6.28923203e-01  6.34722576e-01
  6.39882190e-01  6.42690768e-01  6.49001109e-01  6.50240708e-01
  6.59291493e-01  6.62067087e-01  6.66774938e-01  6.71612183e-01
  6.77571265e-01  6.78824494e-01  6.83595322e-01  6.87547392e-01
  6.90416926e-01  6.95126312e-01  6.98676614e-01  6.99071795e-01
  7.04331906e-01  7.10080694e-01  7.14517038e-01  7.17946843e-01
  7.27616706e-01  7.30708585e-01  7.31980167e-01  7.35558740e-01
  7.37894298e-01  7.41742320e-01  7.45583146e-01  7.53655212e-01
  7.61518423e-01  7.66450453e-01  7.69567971e-01  7.77560833e-01
  7.79221030e-01  7.82180804e-01  7.86683404e-01  7.90282898e-01
  7.93530456e-01  7.98234366e-01  8.04310596e-01  8.10813671e-01
  8.18011121e-01  8.20614800e-01  8.28144230e-01  8.30871278e-01
  8.44957843e-01  8.46816053e-01  8.50925329e-01  8.52649418e-01
  8.57920382e-01  8.63607274e-01  8.67403844e-01  8.77309055e-01
  8.80632263e-01  8.82957778e-01  8.95881428e-01  8.96343016e-01
  9.02887187e-01  9.11852883e-01  9.14821844e-01  9.22130437e-01
  9.25073185e-01  9.27680965e-01  9.31066433e-01  9.42737255e-01
  9.58208831e-01  9.63223546e-01  9.71651956e-01  9.74998699e-01
  9.80825599e-01  9.88188384e-01  1.00157057e+00  1.00322613e+00
  1.00575887e+00  1.00964362e+00  1.01698091e+00  1.02269560e+00
  1.03301769e+00  1.04622978e+00  1.05116571e+00  1.05359316e+00
  1.05621846e+00  1.06420039e+00  1.06965415e+00  1.08280579e+00
  1.08819591e+00  1.09064972e+00  1.09878042e+00  1.10515903e+00
  1.10833732e+00  1.11593283e+00  1.12384757e+00  1.12746991e+00
  1.14438876e+00  1.15303549e+00  1.16094456e+00  1.16715829e+00
  1.17346015e+00  1.18952912e+00  1.19366430e+00  1.19875137e+00
  1.20441898e+00  1.21470397e+00  1.21938328e+00  1.22338601e+00
  1.22718624e+00  1.23299215e+00  1.23628857e+00  1.23937556e+00
  1.24213310e+00  1.24824945e+00  1.25108485e+00  1.25953336e+00
  1.26412468e+00  1.26834685e+00  1.27659596e+00  1.27873553e+00
  1.29609989e+00  1.29887592e+00  1.30396390e+00  1.30746450e+00
  1.31038529e+00  1.31981250e+00  1.32330258e+00  1.33216034e+00
  1.34412842e+00  1.35134247e+00  1.35501747e+00  1.36232951e+00
  1.36954742e+00  1.37443894e+00  1.38892672e+00  1.39252261e+00
  1.40038200e+00  1.40439779e+00  1.40774101e+00  1.41790300e+00
  1.42347625e+00  1.43254979e+00  1.44260776e+00  1.44922492e+00
  1.45590510e+00  1.45829552e+00  1.46217609e+00  1.46561813e+00
  1.47868032e+00  1.47967457e+00  1.48880744e+00  1.49973104e+00
  1.50129865e+00  1.50686902e+00  1.51067977e+00  1.51226492e+00
  1.52193701e+00  1.52458676e+00  1.52917657e+00  1.53214889e+00
  1.53843310e+00  1.54374454e+00  1.54913909e+00  1.54985223e+00
  1.55801682e+00  1.55866831e+00  1.56842360e+00  1.57189865e+00
  1.58571216e+00  1.59374572e+00  1.59884853e+00  1.60318906e+00
  1.60744847e+00  1.60989004e+00  1.61265428e+00  1.62075886e+00
  1.62800329e+00  1.63281866e+00  1.63336771e+00  1.63712961e+00
  1.64025462e+00  1.64476555e+00  1.66324143e+00  1.66919822e+00
  1.67506915e+00  1.67744742e+00  1.68253503e+00  1.68503361e+00
  1.69222675e+00  1.69504052e+00  1.70461287e+00  1.70766474e+00
  1.70959772e+00  1.71836222e+00  1.72377805e+00  1.72880637e+00
  1.73654059e+00  1.73939806e+00  1.74165490e+00  1.75833754e+00
  1.76572236e+00  1.77138883e+00  1.78450549e+00  1.79408626e+00
  1.80473163e+00  1.81219964e+00  1.81911362e+00  1.82688366e+00
  1.84939351e+00  1.85788713e+00  1.86105427e+00  1.87042238e+00
  1.87490805e+00  1.88110043e+00  1.88590912e+00  1.89512838e+00
  1.89941292e+00  1.91554803e+00  1.92476158e+00  1.92759040e+00
  1.93213028e+00  1.95155733e+00  1.95627970e+00  1.96260684e+00
  1.96667743e+00  1.96897049e+00  1.97353665e+00  1.98630482e+00
  1.99427383e+00  2.00205858e+00  2.00973285e+00  2.01765599e+00
  2.03140771e+00  2.04539784e+00  2.04840680e+00  2.05769274e+00
  2.05963036e+00  2.06619278e+00  2.07361791e+00  2.07423361e+00
  2.07883450e+00  2.07898740e+00  2.09383736e+00  2.09616996e+00
  2.10495984e+00  2.11481300e+00  2.11646759e+00  2.12455428e+00
  2.12858207e+00  2.14130532e+00  2.15407247e+00  2.16180001e+00
  2.16868206e+00  2.17120907e+00  2.17519880e+00  2.18765262e+00
  2.19815737e+00  2.20099256e+00  2.20619032e+00  2.22042933e+00
  2.22837007e+00  2.23937201e+00  2.24366239e+00  2.26124482e+00
  2.26646765e+00  2.27395417e+00  2.27814332e+00  2.29232594e+00
  2.29818638e+00  2.30181086e+00  2.31571276e+00  2.32117203e+00
  2.32637447e+00  2.33201864e+00  2.33535618e+00  2.34941841e+00
  2.35320717e+00  2.36045759e+00  2.36813611e+00  2.38375692e+00
  2.39449138e+00  2.40241955e+00  2.41248593e+00  2.42489183e+00
  2.42923546e+00  2.45194774e+00  2.46089104e+00  2.47092560e+00
  2.47971262e+00  2.48175463e+00  2.48815723e+00  2.49422402e+00
  2.50017830e+00  2.51226580e+00  2.51585800e+00  2.51928028e+00
  2.52221406e+00  2.53778765e+00  2.54532028e+00  2.54949506e+00
  2.55265880e+00  2.55422650e+00  2.57061852e+00  2.58112268e+00
  2.58872887e+00  2.59194863e+00  2.60255666e+00  2.60775547e+00
  2.61038121e+00  2.61846572e+00  2.62079176e+00  2.63177421e+00
  2.63734442e+00  2.63992206e+00  2.64645245e+00  2.64938278e+00
  2.65306367e+00  2.66082032e+00  2.66410984e+00  2.67126788e+00
  2.67430836e+00  2.68276152e+00  2.69136677e+00  2.69598382e+00
  2.69877863e+00  2.70214906e+00  2.70572120e+00  2.70991691e+00
  2.71891294e+00  2.72817031e+00  2.72961029e+00  2.73186187e+00
  2.74215497e+00  2.74812133e+00  2.75071194e+00  2.75447571e+00
  2.75898614e+00  2.75986919e+00  2.76556370e+00  2.77024615e+00
  2.77601073e+00  2.77885389e+00  2.78725408e+00  2.79190591e+00
  2.79578710e+00  2.79871568e+00  2.80143095e+00  2.80212224e+00
  2.80625016e+00  2.81011417e+00  2.81792995e+00  2.82559128e+00
  2.82759001e+00  2.83539151e+00  2.83739120e+00  2.84640304e+00
  2.85229499e+00  2.85629998e+00  2.85961524e+00  2.86893589e+00
  2.87293483e+00  2.87556120e+00  2.88949636e+00  2.89499310e+00
  2.89806893e+00  2.90016853e+00  2.91049287e+00  2.91168171e+00
  2.92040432e+00  2.92286464e+00  2.93027385e+00  2.93235184e+00
  2.94209157e+00  2.94569088e+00  2.95361568e+00  2.96698831e+00
  2.97124794e+00  2.97809377e+00  2.98750144e+00  2.99044506e+00
  2.99210188e+00  3.00270882e+00  3.00559017e+00  3.01573805e+00
  3.02581208e+00  3.03080661e+00  3.03597566e+00  3.04402286e+00
  3.05450981e+00  3.05672848e+00  3.06340572e+00  3.06497282e+00
  3.07826266e+00  3.08479277e+00  3.10101177e+00  3.11089704e+00
  3.11338060e+00  3.11764937e+00  3.12498655e+00  3.12640283e+00
  3.13231977e+00  3.13367798e+00  3.13527505e+00  3.13884253e+00
  3.14719898e+00  3.14961303e+00  3.15222419e+00  3.16236850e+00
  3.16520493e+00  3.17430468e+00  3.17792811e+00  3.18083242e+00
  3.18625145e+00  3.19056137e+00  3.19328861e+00  3.19538811e+00
  3.20025613e+00  3.20721450e+00  3.21131493e+00  3.21426611e+00
  3.21726619e+00  3.22142478e+00  3.22504549e+00  3.22598208e+00
  3.23291023e+00  3.23585665e+00  3.24123078e+00  3.24871729e+00
  3.25758048e+00  3.26912968e+00  3.27844482e+00  3.28182713e+00
  3.28620517e+00  3.28990882e+00  3.29572864e+00  3.29695776e+00
  3.30192671e+00  3.30809241e+00  3.31390900e+00  3.31907632e+00
  3.31980984e+00  3.32428179e+00  3.32833652e+00  3.33170634e+00
  3.34590296e+00  3.35380196e+00  3.36253152e+00  3.36480403e+00
  3.36763342e+00  3.37426800e+00  3.37799905e+00  3.38138426e+00
  3.39016278e+00  3.39246372e+00  3.39744992e+00  3.40267953e+00
  3.40341277e+00  3.40796915e+00  3.41444384e+00  3.41807664e+00
  3.42147055e+00  3.42271903e+00  3.42952158e+00  3.43233079e+00
  3.43654856e+00  3.44498713e+00  3.44832683e+00  3.45266660e+00
  3.46115130e+00  3.46444510e+00  3.46919413e+00  3.47674412e+00
  3.48252101e+00  3.48687421e+00  3.49487315e+00  3.50006362e+00
  3.50789118e+00  3.51594285e+00  3.51979153e+00  3.52452749e+00
  3.52734305e+00  3.53208337e+00  3.53854708e+00  3.53993390e+00
  3.54263288e+00  3.54966000e+00  3.55664991e+00  3.55985833e+00
  3.56521338e+00  3.57120187e+00  3.57250042e+00  3.58236467e+00
  3.58758287e+00  3.59970535e+00  3.60275564e+00  3.61350655e+00
  3.61649793e+00  3.61909691e+00  3.62454644e+00  3.63529336e+00
  3.64327327e+00  3.65215791e+00  3.66314847e+00  3.66740901e+00
  3.70551234e+00  3.70704319e+00  3.72118524e+00  3.73559919e+00
  3.74004800e+00  3.74556395e+00  3.75843738e+00  3.76977591e+00
  3.77376202e+00  3.78023382e+00  3.78551917e+00  3.78961431e+00
  3.79732230e+00  3.80589774e+00  3.81259558e+00  3.82703624e+00
  3.86584140e+00  3.87388785e+00  3.88401000e+00  3.90672385e+00
  3.91220504e+00  3.92110634e+00  3.93229674e+00  3.94485387e+00
  3.94947867e+00  3.95673314e+00  3.97062388e+00  3.97927893e+00
  3.98171724e+00  3.99800101e+00  4.01382384e+00  4.02334945e+00
  4.02763419e+00  4.04187119e+00  4.05786774e+00  4.06715703e+00
  4.07779969e+00  4.08236083e+00  4.08913099e+00  4.09194520e+00
  4.10521634e+00  4.10863953e+00  4.11739049e+00  4.13130917e+00
  4.13772151e+00  4.14302750e+00  4.15421070e+00  4.15500200e+00
  4.15941035e+00  4.16840853e+00  4.16989542e+00  4.18028684e+00
  4.18373549e+00  4.19394306e+00  4.20252968e+00  4.20389665e+00
  4.21236188e+00  4.21387843e+00  4.22199604e+00  4.23493373e+00
  4.23848446e+00  4.24214019e+00  4.24941464e+00  4.26190344e+00
  4.26846120e+00  4.28029933e+00  4.28775167e+00  4.29298297e+00
  4.30460928e+00  4.31274050e+00  4.32302506e+00  4.32939289e+00
  4.33467979e+00  4.35897730e+00  4.36677294e+00  4.38321435e+00
  4.40315363e+00  4.40851199e+00  4.43660369e+00  4.43744671e+00
  4.43825441e+00  4.45741636e+00  4.46385160e+00  4.46674087e+00
  4.48644294e+00  4.51149882e+00  4.51858659e+00  4.55226118e+00
  4.56607025e+00  4.59050048e+00  4.62975858e+00  4.63183665e+00
  4.64741118e+00  4.66822639e+00  4.67113414e+00  4.67664697e+00
  4.69412322e+00  4.71888125e+00  4.73311175e+00  4.74159987e+00
  4.75200705e+00  4.76551010e+00  4.77969000e+00  4.80606632e+00
  4.82577953e+00  4.83476331e+00  4.86994936e+00  4.87938948e+00
  4.91185149e+00  4.91896386e+00  4.92486828e+00  4.93203282e+00
  4.94961433e+00  4.96254807e+00  4.97308925e+00  5.00142818e+00
  5.01124363e+00  5.02509953e+00  5.03351158e+00  5.03476455e+00
  5.06576264e+00  5.07460452e+00  5.10976959e+00  5.14257466e+00
  5.15351539e+00  5.17372202e+00  5.19686964e+00  5.20039562e+00
  5.20384967e+00  5.21448006e+00  5.24211400e+00  5.24730116e+00
  5.26552454e+00  5.32906007e+00  5.33163164e+00  5.37966839e+00
  5.41932363e+00  5.42578785e+00  5.43337359e+00  5.45124649e+00
  5.47143369e+00  5.48654491e+00  5.50649032e+00  5.52649022e+00
  5.55322178e+00  5.60192054e+00  5.63969377e+00  5.67064920e+00
  5.72204821e+00  5.76496991e+00  5.77272141e+00  5.79029911e+00
  5.81747139e+00  5.81876480e+00  5.89830510e+00  5.91241605e+00
  5.96474060e+00  6.08412507e+00  6.16810902e+00  6.42784928e+00
  6.70900793e+00  6.72651597e+00  6.85463611e+00  7.01714237e+00
  7.47919989e+00  7.48449579e+00  2.21673794e+01  2.23659354e+01
  2.24109372e+01  2.24600027e+01  2.25067084e+01  2.26110510e+01
  2.26365234e+01  2.26411438e+01  2.26703868e+01  2.27349585e+01
  2.27584015e+01  2.27686013e+01  2.27930636e+01  2.28130708e+01
  2.28425873e+01  2.29085672e+01  2.29422287e+01  2.29993621e+01
  2.30812682e+01  2.31413142e+01  2.32531595e+01  2.33834314e+01
  2.35079620e+01  2.38167099e+01  3.29509390e+01  4.45294171e+01]
nelec by numeric integration = 179.9997322573616
    CPU time for vxc    123.33 sec, wall time      6.91 sec
    CPU time for df vj and vk    346.15 sec, wall time     22.06 sec
E1 = -5501.830923977739  Ecoul = 2548.880393486714  Exc = -152.2968072451618
cycle= 1 E= -1056.27676983575  delta_E= 1.77e-10  |g|= 3e-05  |ddm|= 5.27e-05
    CPU time for cycle= 1    475.83 sec, wall time     29.71 sec
  HOMO = -0.180724055928373  LUMO = -0.0644157209372374
  mo_energy =
[-1.92593239e+01 -1.44140068e+01 -1.02944138e+01 -1.02891137e+01
 -1.02714101e+01 -1.02621544e+01 -1.02616928e+01 -1.02485917e+01
 -1.02475272e+01 -1.02437985e+01 -1.02431765e+01 -1.02409308e+01
 -1.02402671e+01 -1.02398615e+01 -1.02308549e+01 -1.02303030e+01
 -1.02282858e+01 -1.02276859e+01 -1.02261175e+01 -1.02255442e+01
 -1.02252193e+01 -1.02244686e+01 -1.02236756e+01 -1.02227566e+01
 -1.02218049e+01 -1.02214018e+01 -1.12173626e+00 -9.80780435e-01
 -8.92504576e-01 -8.76342484e-01 -8.71146505e-01 -8.31942143e-01
 -8.06533263e-01 -7.92251735e-01 -7.81392283e-01 -7.70781010e-01
 -7.61014238e-01 -7.54766574e-01 -7.45085066e-01 -7.27786118e-01
 -6.85654360e-01 -6.60413331e-01 -6.45974901e-01 -6.29734085e-01
 -6.21218438e-01 -6.10868890e-01 -6.05535298e-01 -5.83843624e-01
 -5.71133056e-01 -5.45148535e-01 -5.33138636e-01 -5.18456428e-01
 -5.07240492e-01 -4.96254660e-01 -4.89712599e-01 -4.84308764e-01
 -4.78367255e-01 -4.71206842e-01 -4.70587100e-01 -4.63305581e-01
 -4.55057475e-01 -4.51801447e-01 -4.45904587e-01 -4.33280992e-01
 -4.29904651e-01 -4.24552634e-01 -4.23297561e-01 -4.18238801e-01
 -4.11506025e-01 -4.00968142e-01 -3.97934641e-01 -3.93145738e-01
 -3.86854129e-01 -3.85194409e-01 -3.81351839e-01 -3.79507529e-01
 -3.70359845e-01 -3.61393509e-01 -3.49638631e-01 -3.40166638e-01
 -3.37721172e-01 -3.35045381e-01 -3.08405777e-01 -2.87726913e-01
 -2.79914867e-01 -2.62391700e-01 -2.60213517e-01 -2.53492048e-01
 -2.18378889e-01 -1.80724056e-01 -6.44157209e-02 -3.96594259e-02
 -4.43514890e-03 -2.51637609e-03  5.89061736e-03  1.53489555e-02
  3.50552234e-02  5.39667792e-02  5.42697662e-02  6.17622453e-02
  6.26547104e-02  6.57023922e-02  7.21094541e-02  7.91853189e-02
  8.41562743e-02  9.61495820e-02  9.83834786e-02  9.92860760e-02
  1.03970569e-01  1.07872127e-01  1.10269651e-01  1.18260517e-01
  1.22586801e-01  1.25195992e-01  1.31441343e-01  1.36779289e-01
  1.37985998e-01  1.43698734e-01  1.46890764e-01  1.50502899e-01
  1.54008763e-01  1.57765248e-01  1.63385325e-01  1.64531517e-01
  1.69586146e-01  1.74036875e-01  1.76679703e-01  1.80551022e-01
  1.87478029e-01  1.89868717e-01  1.94444103e-01  1.97933652e-01
  2.06991247e-01  2.11546386e-01  2.14213522e-01  2.23024611e-01
  2.25269322e-01  2.25884831e-01  2.29338896e-01  2.36015124e-01
  2.38072714e-01  2.38476776e-01  2.40386979e-01  2.43038244e-01
  2.47365811e-01  2.51728230e-01  2.55077743e-01  2.56967643e-01
  2.63129742e-01  2.67308504e-01  2.78254284e-01  2.79510171e-01
  2.81564798e-01  2.84592814e-01  2.86037588e-01  2.89296360e-01
  2.97000062e-01  3.00313068e-01  3.00994354e-01  3.02020006e-01
  3.09963817e-01  3.14706080e-01  3.21198633e-01  3.22540939e-01
  3.26500097e-01  3.28468888e-01  3.32500416e-01  3.41345892e-01
  3.41746785e-01  3.46672824e-01  3.47881348e-01  3.49831598e-01
  3.53745830e-01  3.56763897e-01  3.61419829e-01  3.63518590e-01
  3.65371245e-01  3.67702309e-01  3.72780323e-01  3.76047765e-01
  3.77717889e-01  3.81434614e-01  3.83594092e-01  3.89375392e-01
  3.93889675e-01  3.98825504e-01  4.03695762e-01  4.09043596e-01
  4.10114075e-01  4.14545799e-01  4.16299567e-01  4.18918051e-01
  4.21717284e-01  4.26290719e-01  4.29972359e-01  4.36596946e-01
  4.38510450e-01  4.39740842e-01  4.47492864e-01  4.51511607e-01
  4.54926690e-01  4.57408072e-01  4.62323968e-01  4.65409704e-01
  4.65940167e-01  4.73093753e-01  4.77124835e-01  4.78900150e-01
  4.82698088e-01  4.84548678e-01  4.88233728e-01  4.90688096e-01
  4.93635994e-01  4.95950322e-01  5.02299764e-01  5.05703017e-01
  5.08467024e-01  5.17007713e-01  5.18712168e-01  5.26589857e-01
  5.27232622e-01  5.30062152e-01  5.33551369e-01  5.41446571e-01
  5.48835860e-01  5.55278734e-01  5.57341773e-01  5.69807871e-01
  5.78408095e-01  5.80385771e-01  5.82769095e-01  5.92749464e-01
  5.97153272e-01  5.99569333e-01  6.02271331e-01  6.03962225e-01
  6.12662832e-01  6.19625615e-01  6.28922572e-01  6.34722588e-01
  6.39881481e-01  6.42690864e-01  6.49000745e-01  6.50240520e-01
  6.59290857e-01  6.62066978e-01  6.66774410e-01  6.71612046e-01
  6.77571513e-01  6.78824785e-01  6.83594509e-01  6.87546934e-01
  6.90416100e-01  6.95126908e-01  6.98674578e-01  6.99070896e-01
  7.04331671e-01  7.10080808e-01  7.14516587e-01  7.17945543e-01
  7.27615977e-01  7.30708103e-01  7.31980422e-01  7.35558211e-01
  7.37894836e-01  7.41742023e-01  7.45584177e-01  7.53655017e-01
  7.61518268e-01  7.66450242e-01  7.69567826e-01  7.77560808e-01
  7.79220981e-01  7.82180727e-01  7.86682974e-01  7.90283015e-01
  7.93529548e-01  7.98234023e-01  8.04310248e-01  8.10813117e-01
  8.18010959e-01  8.20615196e-01  8.28145310e-01  8.30871079e-01
  8.44956803e-01  8.46815731e-01  8.50925017e-01  8.52649310e-01
  8.57919496e-01  8.63607334e-01  8.67402814e-01  8.77308872e-01
  8.80632587e-01  8.82956925e-01  8.95881338e-01  8.96343198e-01
  9.02886530e-01  9.11852651e-01  9.14821008e-01  9.22130168e-01
  9.25072555e-01  9.27680046e-01  9.31065293e-01  9.42736740e-01
  9.58207969e-01  9.63223116e-01  9.71651083e-01  9.74998722e-01
  9.80824655e-01  9.88188032e-01  1.00156989e+00  1.00322638e+00
  1.00575912e+00  1.00964410e+00  1.01698075e+00  1.02269489e+00
  1.03301780e+00  1.04623018e+00  1.05116575e+00  1.05359258e+00
  1.05621853e+00  1.06419979e+00  1.06965403e+00  1.08280506e+00
  1.08819614e+00  1.09064987e+00  1.09878017e+00  1.10515816e+00
  1.10833737e+00  1.11593278e+00  1.12384624e+00  1.12746977e+00
  1.14438871e+00  1.15303504e+00  1.16094412e+00  1.16715772e+00
  1.17346003e+00  1.18952893e+00  1.19366347e+00  1.19875092e+00
  1.20441826e+00  1.21470341e+00  1.21938382e+00  1.22338517e+00
  1.22718644e+00  1.23299054e+00  1.23628889e+00  1.23937652e+00
  1.24213274e+00  1.24824887e+00  1.25108508e+00  1.25953320e+00
  1.26412505e+00  1.26834603e+00  1.27659627e+00  1.27873603e+00
  1.29609916e+00  1.29887630e+00  1.30396428e+00  1.30746403e+00
  1.31038617e+00  1.31981281e+00  1.32330221e+00  1.33216048e+00
  1.34412858e+00  1.35134198e+00  1.35501626e+00  1.36232891e+00
  1.36954737e+00  1.37443700e+00  1.38892568e+00  1.39252112e+00
  1.40038205e+00  1.40439849e+00  1.40774124e+00  1.41790252e+00
  1.42347605e+00  1.43254943e+00  1.44260848e+00  1.44922402e+00
  1.45590287e+00  1.45829523e+00  1.46217659e+00  1.46561782e+00
  1.47868064e+00  1.47967487e+00  1.48880786e+00  1.49973068e+00
  1.50129571e+00  1.50686890e+00  1.51068010e+00  1.51226390e+00
  1.52193711e+00  1.52458763e+00  1.52917739e+00  1.53214985e+00
  1.53843326e+00  1.54374517e+00  1.54913895e+00  1.54985228e+00
  1.55801730e+00  1.55866737e+00  1.56842351e+00  1.57189886e+00
  1.58571176e+00  1.59374661e+00  1.59884859e+00  1.60318927e+00
  1.60744833e+00  1.60989006e+00  1.61265393e+00  1.62075849e+00
  1.62800377e+00  1.63281968e+00  1.63336712e+00  1.63712955e+00
  1.64025216e+00  1.64476498e+00  1.66324033e+00  1.66919750e+00
  1.67506924e+00  1.67744826e+00  1.68253496e+00  1.68503447e+00
  1.69222608e+00  1.69504185e+00  1.70461401e+00  1.70766596e+00
  1.70959808e+00  1.71836249e+00  1.72377668e+00  1.72880510e+00
  1.73654043e+00  1.73939681e+00  1.74165467e+00  1.75833757e+00
  1.76572200e+00  1.77138884e+00  1.78450498e+00  1.79408516e+00
  1.80473107e+00  1.81220077e+00  1.81911431e+00  1.82688255e+00
  1.84939467e+00  1.85788531e+00  1.86105439e+00  1.87041987e+00
  1.87490854e+00  1.88110152e+00  1.88591089e+00  1.89512873e+00
  1.89941289e+00  1.91554694e+00  1.92476039e+00  1.92758926e+00
  1.93212946e+00  1.95155563e+00  1.95627997e+00  1.96260658e+00
  1.96667740e+00  1.96897032e+00  1.97353703e+00  1.98630586e+00
  1.99427381e+00  2.00205823e+00  2.00973254e+00  2.01765372e+00
  2.03140762e+00  2.04539590e+00  2.04840525e+00  2.05769239e+00
  2.05963066e+00  2.06619236e+00  2.07361731e+00  2.07423174e+00
  2.07883291e+00  2.07898583e+00  2.09383790e+00  2.09616928e+00
  2.10496071e+00  2.11481443e+00  2.11646825e+00  2.12455236e+00
  2.12858240e+00  2.14130318e+00  2.15407079e+00  2.16179953e+00
  2.16868186e+00  2.17120962e+00  2.17519935e+00  2.18765373e+00
  2.19815386e+00  2.20099208e+00  2.20619102e+00  2.22042858e+00
  2.22836802e+00  2.23937089e+00  2.24366267e+00  2.26124533e+00
  2.26646821e+00  2.27395422e+00  2.27814385e+00  2.29232641e+00
  2.29818450e+00  2.30181025e+00  2.31571269e+00  2.32117199e+00
  2.32637315e+00  2.33201857e+00  2.33535531e+00  2.34941860e+00
  2.35320700e+00  2.36045515e+00  2.36813640e+00  2.38375675e+00
  2.39449166e+00  2.40241906e+00  2.41248619e+00  2.42489061e+00
  2.42923590e+00  2.45194666e+00  2.46088975e+00  2.47092604e+00
  2.47971306e+00  2.48175495e+00  2.48815729e+00  2.49422136e+00
  2.50017774e+00  2.51226560e+00  2.51585723e+00  2.51928053e+00
  2.52221416e+00  2.53778802e+00  2.54532110e+00  2.54949517e+00
  2.55265861e+00  2.55422693e+00  2.57061881e+00  2.58112220e+00
  2.58872851e+00  2.59194870e+00  2.60255521e+00  2.60775469e+00
  2.61038013e+00  2.61846623e+00  2.62079107e+00  2.63177453e+00
  2.63734312e+00  2.63992308e+00  2.64645094e+00  2.64938311e+00
  2.65306431e+00  2.66082134e+00  2.66410959e+00  2.67126808e+00
  2.67430839e+00  2.68276191e+00  2.69136722e+00  2.69598427e+00
  2.69877922e+00  2.70214838e+00  2.70572176e+00  2.70991639e+00
  2.71891305e+00  2.72817062e+00  2.72960956e+00  2.73186270e+00
  2.74215491e+00  2.74812189e+00  2.75071036e+00  2.75447310e+00
  2.75898677e+00  2.75986815e+00  2.76556303e+00  2.77024465e+00
  2.77601035e+00  2.77885151e+00  2.78725453e+00  2.79190652e+00
  2.79578836e+00  2.79871508e+00  2.80143059e+00  2.80212280e+00
  2.80625113e+00  2.81011380e+00  2.81793048e+00  2.82559211e+00
  2.82758988e+00  2.83539140e+00  2.83739033e+00  2.84640395e+00
  2.85229517e+00  2.85630000e+00  2.85961514e+00  2.86893646e+00
  2.87293434e+00  2.87556095e+00  2.88949699e+00  2.89499258e+00
  2.89806926e+00  2.90016900e+00  2.91049158e+00  2.91167888e+00
  2.92040381e+00  2.92286431e+00  2.93027282e+00  2.93235275e+00
  2.94209170e+00  2.94569098e+00  2.95361524e+00  2.96698856e+00
  2.97124672e+00  2.97809184e+00  2.98749901e+00  2.99044434e+00
  2.99210171e+00  3.00270821e+00  3.00558928e+00  3.01573583e+00
  3.02581162e+00  3.03080620e+00  3.03597527e+00  3.04402351e+00
  3.05451036e+00  3.05672834e+00  3.06340524e+00  3.06497207e+00
  3.07826148e+00  3.08479195e+00  3.10101091e+00  3.11089684e+00
  3.11337907e+00  3.11764869e+00  3.12498552e+00  3.12640195e+00
  3.13231818e+00  3.13367800e+00  3.13527387e+00  3.13884343e+00
  3.14719994e+00  3.14961291e+00  3.15222456e+00  3.16236964e+00
  3.16520503e+00  3.17430499e+00  3.17792888e+00  3.18083278e+00
  3.18625190e+00  3.19056036e+00  3.19328885e+00  3.19538793e+00
  3.20025616e+00  3.20721478e+00  3.21131461e+00  3.21426618e+00
  3.21726637e+00  3.22142476e+00  3.22504460e+00  3.22598273e+00
  3.23290888e+00  3.23585556e+00  3.24123069e+00  3.24871729e+00
  3.25758024e+00  3.26912941e+00  3.27844450e+00  3.28182640e+00
  3.28620513e+00  3.28990922e+00  3.29572881e+00  3.29695658e+00
  3.30192703e+00  3.30809203e+00  3.31390861e+00  3.31907659e+00
  3.31980909e+00  3.32428122e+00  3.32833653e+00  3.33170711e+00
  3.34590386e+00  3.35380236e+00  3.36252999e+00  3.36480302e+00
  3.36763212e+00  3.37426727e+00  3.37799738e+00  3.38138257e+00
  3.39016235e+00  3.39246337e+00  3.39744982e+00  3.40268074e+00
  3.40341424e+00  3.40796912e+00  3.41444336e+00  3.41807714e+00
  3.42147078e+00  3.42271914e+00  3.42952186e+00  3.43233041e+00
  3.43654873e+00  3.44498669e+00  3.44832630e+00  3.45266433e+00
  3.46115173e+00  3.46444487e+00  3.46919435e+00  3.47674460e+00
  3.48252101e+00  3.48687419e+00  3.49487244e+00  3.50006313e+00
  3.50788934e+00  3.51594286e+00  3.51979112e+00  3.52452651e+00
  3.52734347e+00  3.53208318e+00  3.53854551e+00  3.53993324e+00
  3.54263344e+00  3.54965946e+00  3.55664943e+00  3.55985795e+00
  3.56521338e+00  3.57120162e+00  3.57249920e+00  3.58236482e+00
  3.58758260e+00  3.59970478e+00  3.60275545e+00  3.61350635e+00
  3.61649701e+00  3.61909431e+00  3.62454551e+00  3.63529228e+00
  3.64327207e+00  3.65215639e+00  3.66314771e+00  3.66740780e+00
  3.70551045e+00  3.70704232e+00  3.72118618e+00  3.73559788e+00
  3.74004807e+00  3.74556276e+00  3.75843711e+00  3.76977610e+00
  3.77376173e+00  3.78023255e+00  3.78551798e+00  3.78961461e+00
  3.79732114e+00  3.80589760e+00  3.81259554e+00  3.82703602e+00
  3.86584083e+00  3.87388666e+00  3.88401011e+00  3.90672364e+00
  3.91220448e+00  3.92110609e+00  3.93229577e+00  3.94485460e+00
  3.94947852e+00  3.95673355e+00  3.97062366e+00  3.97927895e+00
  3.98171679e+00  3.99799977e+00  4.01382398e+00  4.02334792e+00
  4.02763398e+00  4.04186987e+00  4.05786776e+00  4.06715835e+00
  4.07779913e+00  4.08236097e+00  4.08913110e+00  4.09194476e+00
  4.10521693e+00  4.10863972e+00  4.11739066e+00  4.13130977e+00
  4.13772238e+00  4.14302846e+00  4.15420958e+00  4.15500148e+00
  4.15941024e+00  4.16840425e+00  4.16989528e+00  4.18028543e+00
  4.18373467e+00  4.19394331e+00  4.20253107e+00  4.20389636e+00
  4.21236230e+00  4.21388024e+00  4.22199516e+00  4.23493439e+00
  4.23848478e+00  4.24214147e+00  4.24941475e+00  4.26190407e+00
  4.26846096e+00  4.28029940e+00  4.28775244e+00  4.29298386e+00
  4.30460867e+00  4.31274151e+00  4.32302446e+00  4.32939262e+00
  4.33467804e+00  4.35897633e+00  4.36677309e+00  4.38321645e+00
  4.40315157e+00  4.40851240e+00  4.43660285e+00  4.43744381e+00
  4.43825114e+00  4.45741667e+00  4.46384985e+00  4.46673978e+00
  4.48644331e+00  4.51149798e+00  4.51858466e+00  4.55226275e+00
  4.56607155e+00  4.59049874e+00  4.62975831e+00  4.63183672e+00
  4.64740854e+00  4.66822655e+00  4.67113568e+00  4.67664676e+00
  4.69412054e+00  4.71888161e+00  4.73310913e+00  4.74159986e+00
  4.75200662e+00  4.76550903e+00  4.77969121e+00  4.80606508e+00
  4.82577821e+00  4.83475888e+00  4.86995018e+00  4.87938987e+00
  4.91185152e+00  4.91896322e+00  4.92486888e+00  4.93203194e+00
  4.94961535e+00  4.96254594e+00  4.97308777e+00  5.00142876e+00
  5.01124415e+00  5.02510024e+00  5.03351159e+00  5.03476556e+00
  5.06576092e+00  5.07460437e+00  5.10976920e+00  5.14257413e+00
  5.15351303e+00  5.17372093e+00  5.19686918e+00  5.20039383e+00
  5.20385059e+00  5.21447990e+00  5.24211502e+00  5.24730089e+00
  5.26552474e+00  5.32905906e+00  5.33162979e+00  5.37966684e+00
  5.41932099e+00  5.42578907e+00  5.43337439e+00  5.45124143e+00
  5.47143279e+00  5.48654595e+00  5.50649077e+00  5.52649038e+00
  5.55322217e+00  5.60192173e+00  5.63969172e+00  5.67064667e+00
  5.72204765e+00  5.76496525e+00  5.77271537e+00  5.79029989e+00
  5.81746604e+00  5.81875799e+00  5.89830082e+00  5.91241698e+00
  5.96474200e+00  6.08412626e+00  6.16810271e+00  6.42784224e+00
  6.70900190e+00  6.72650945e+00  6.85463035e+00  7.01713625e+00
  7.47919391e+00  7.48448995e+00  2.21673802e+01  2.23659367e+01
  2.24109375e+01  2.24600041e+01  2.25067088e+01  2.26110552e+01
  2.26365233e+01  2.26411434e+01  2.26703863e+01  2.27349585e+01
  2.27584039e+01  2.27686051e+01  2.27930646e+01  2.28130729e+01
  2.28425844e+01  2.29085690e+01  2.29422311e+01  2.29993629e+01
  2.30812694e+01  2.31413067e+01  2.32531620e+01  2.33834326e+01
  2.35079517e+01  2.38166975e+01  3.29509396e+01  4.45294109e+01]
nelec by numeric integration = 179.99973225792593
    CPU time for vxc    116.13 sec, wall time      6.35 sec
    CPU time for df vj and vk    346.41 sec, wall time     22.64 sec
E1 = -5501.831157662855  Ecoul = 2548.88062634408  Exc = -152.2968064165329
cycle= 2 E= -1056.27676983487  delta_E= 8.79e-10  |g|= 6.4e-05  |ddm|= 0.00011
    CPU time for cycle= 2    469.84 sec, wall time     29.65 sec
  HOMO = -0.180723541915066  LUMO = -0.0644146048791016
  mo_energy =
[-1.92593181e+01 -1.44140077e+01 -1.02944052e+01 -1.02891026e+01
 -1.02714132e+01 -1.02621546e+01 -1.02616933e+01 -1.02485805e+01
 -1.02475196e+01 -1.02438005e+01 -1.02431731e+01 -1.02409303e+01
 -1.02402732e+01 -1.02398631e+01 -1.02308548e+01 -1.02303018e+01
 -1.02282877e+01 -1.02276934e+01 -1.02261184e+01 -1.02255462e+01
 -1.02252201e+01 -1.02244689e+01 -1.02236779e+01 -1.02227570e+01
 -1.02218073e+01 -1.02214063e+01 -1.12173015e+00 -9.80781404e-01
 -8.92501019e-01 -8.76344553e-01 -8.71147334e-01 -8.31939884e-01
 -8.06531202e-01 -7.92251097e-01 -7.81391517e-01 -7.70781959e-01
 -7.61015732e-01 -7.54766044e-01 -7.45085679e-01 -7.27785880e-01
 -6.85654184e-01 -6.60410893e-01 -6.45974369e-01 -6.29732325e-01
 -6.21219390e-01 -6.10869474e-01 -6.05535116e-01 -5.83843532e-01
 -5.71131473e-01 -5.45148797e-01 -5.33138786e-01 -5.18455118e-01
 -5.07240424e-01 -4.96254156e-01 -4.89711699e-01 -4.84309317e-01
 -4.78367625e-01 -4.71207488e-01 -4.70582356e-01 -4.63305387e-01
 -4.55056482e-01 -4.51800483e-01 -4.45903676e-01 -4.33282043e-01
 -4.29905312e-01 -4.24552974e-01 -4.23298578e-01 -4.18239325e-01
 -4.11506804e-01 -4.00968026e-01 -3.97934605e-01 -3.93144784e-01
 -3.86854541e-01 -3.85193478e-01 -3.81350611e-01 -3.79507928e-01
 -3.70358180e-01 -3.61392906e-01 -3.49639384e-01 -3.40166135e-01
 -3.37721999e-01 -3.35043983e-01 -3.08405803e-01 -2.87724847e-01
 -2.79913941e-01 -2.62392729e-01 -2.60214979e-01 -2.53491140e-01
 -2.18378984e-01 -1.80723542e-01 -6.44146049e-02 -3.96578731e-02
 -4.43602148e-03 -2.51766122e-03  5.89052906e-03  1.53498461e-02
  3.50549380e-02  5.39670251e-02  5.42694956e-02  6.17624061e-02
  6.26548792e-02  6.57023131e-02  7.21094764e-02  7.91852349e-02
  8.41560509e-02  9.61513416e-02  9.83837102e-02  9.92862529e-02
  1.03970987e-01  1.07873177e-01  1.10269502e-01  1.18260238e-01
  1.22586855e-01  1.25196121e-01  1.31441402e-01  1.36779352e-01
  1.37985718e-01  1.43698941e-01  1.46890807e-01  1.50502316e-01
  1.54008713e-01  1.57765138e-01  1.63385123e-01  1.64531544e-01
  1.69586695e-01  1.74036972e-01  1.76681502e-01  1.80552775e-01
  1.87478714e-01  1.89868511e-01  1.94444624e-01  1.97933532e-01
  2.06992326e-01  2.11547482e-01  2.14214710e-01  2.23025417e-01
  2.25269672e-01  2.25885260e-01  2.29338309e-01  2.36015194e-01
  2.38072325e-01  2.38476631e-01  2.40386903e-01  2.43038087e-01
  2.47365890e-01  2.51728239e-01  2.55077814e-01  2.56967947e-01
  2.63129489e-01  2.67309131e-01  2.78254297e-01  2.79510759e-01
  2.81565167e-01  2.84592473e-01  2.86037630e-01  2.89296217e-01
  2.96999764e-01  3.00312937e-01  3.00994156e-01  3.02020045e-01
  3.09963974e-01  3.14705894e-01  3.21198629e-01  3.22541485e-01
  3.26500096e-01  3.28468885e-01  3.32500519e-01  3.41346272e-01
  3.41746967e-01  3.46673543e-01  3.47882552e-01  3.49832004e-01
  3.53746418e-01  3.56764715e-01  3.61420717e-01  3.63519086e-01
  3.65370937e-01  3.67702503e-01  3.72780301e-01  3.76048205e-01
  3.77717714e-01  3.81434816e-01  3.83594654e-01  3.89375514e-01
  3.93889225e-01  3.98825774e-01  4.03695640e-01  4.09043933e-01
  4.10114022e-01  4.14545924e-01  4.16299806e-01  4.18918318e-01
  4.21717390e-01  4.26290929e-01  4.29972246e-01  4.36597072e-01
  4.38510560e-01  4.39741051e-01  4.47492832e-01  4.51511619e-01
  4.54926960e-01  4.57408082e-01  4.62324454e-01  4.65410096e-01
  4.65940161e-01  4.73093809e-01  4.77124694e-01  4.78900316e-01
  4.82698138e-01  4.84548413e-01  4.88233546e-01  4.90688087e-01
  4.93635916e-01  4.95950305e-01  5.02300285e-01  5.05702839e-01
  5.08466694e-01  5.17008017e-01  5.18712343e-01  5.26589582e-01
  5.27233273e-01  5.30062345e-01  5.33551425e-01  5.41446795e-01
  5.48836241e-01  5.55278782e-01  5.57341820e-01  5.69808467e-01
  5.78408107e-01  5.80385915e-01  5.82768699e-01  5.92749544e-01
  5.97154111e-01  5.99569554e-01  6.02272331e-01  6.03963167e-01
  6.12662698e-01  6.19625705e-01  6.28923107e-01  6.34722676e-01
  6.39882049e-01  6.42690868e-01  6.49001009e-01  6.50240723e-01
  6.59291340e-01  6.62067113e-01  6.66774864e-01  6.71612192e-01
  6.77571402e-01  6.78824662e-01  6.83595125e-01  6.87547347e-01
  6.90416741e-01  6.95126610e-01  6.98676009e-01  6.99071527e-01
  7.04331909e-01  7.10080825e-01  7.14517016e-01  7.17946503e-01
  7.27616519e-01  7.30708462e-01  7.31980310e-01  7.35558675e-01
  7.37894624e-01  7.41742315e-01  7.45583645e-01  7.53655217e-01
  7.61518495e-01  7.66450483e-01  7.69568034e-01  7.77560896e-01
  7.79221118e-01  7.82180871e-01  7.86683345e-01  7.90283034e-01
  7.93530219e-01  7.98234361e-01  8.04310564e-01  8.10813537e-01
  8.18011176e-01  8.20614984e-01  8.28144657e-01  8.30871302e-01
  8.44957579e-01  8.46816051e-01  8.50925312e-01  8.52649475e-01
  8.57920180e-01  8.63607389e-01  8.67403634e-01  8.77309055e-01
  8.80632473e-01  8.82957571e-01  8.95881489e-01  8.96343165e-01
  9.02887059e-01  9.11852937e-01  9.14821648e-01  9.22130419e-01
  9.25073097e-01  9.27680751e-01  9.31066039e-01  9.42737125e-01
  9.58208635e-01  9.63223471e-01  9.71651747e-01  9.74998818e-01
  9.80825374e-01  9.88188352e-01  1.00157042e+00  1.00322626e+00
  1.00575901e+00  1.00964381e+00  1.01698093e+00  1.02269545e+00
  1.03301782e+00  1.04623002e+00  1.05116580e+00  1.05359300e+00
  1.05621852e+00  1.06420022e+00  1.06965417e+00  1.08280557e+00
  1.08819607e+00  1.09064985e+00  1.09878042e+00  1.10515881e+00
  1.10833737e+00  1.11593284e+00  1.12384712e+00  1.12746995e+00
  1.14438883e+00  1.15303543e+00  1.16094450e+00  1.16715819e+00
  1.17346016e+00  1.18952910e+00  1.19366410e+00  1.19875128e+00
  1.20441877e+00  1.21470382e+00  1.21938356e+00  1.22338577e+00
  1.22718636e+00  1.23299173e+00  1.23628876e+00  1.23937598e+00
  1.24213304e+00  1.24824933e+00  1.25108502e+00  1.25953337e+00
  1.26412490e+00  1.26834668e+00  1.27659612e+00  1.27873579e+00
  1.29609969e+00  1.29887613e+00  1.30396408e+00  1.30746449e+00
  1.31038568e+00  1.31981274e+00  1.32330260e+00  1.33216050e+00
  1.34412858e+00  1.35134230e+00  1.35501720e+00  1.36232941e+00
  1.36954754e+00  1.37443839e+00  1.38892646e+00  1.39252218e+00
  1.40038211e+00  1.40439811e+00  1.40774117e+00  1.41790291e+00
  1.42347624e+00  1.43254975e+00  1.44260808e+00  1.44922455e+00
  1.45590436e+00  1.45829543e+00  1.46217628e+00  1.46561807e+00
  1.47868048e+00  1.47967471e+00  1.48880763e+00  1.49973096e+00
  1.50129774e+00  1.50686906e+00  1.51067995e+00  1.51226460e+00
  1.52193714e+00  1.52458713e+00  1.52917692e+00  1.53214928e+00
  1.53843318e+00  1.54374485e+00  1.54913904e+00  1.54985229e+00
  1.55801701e+00  1.55866806e+00  1.56842361e+00  1.57189876e+00
  1.58571211e+00  1.59374606e+00  1.59884855e+00  1.60318915e+00
  1.60744844e+00  1.60989008e+00  1.61265421e+00  1.62075877e+00
  1.62800351e+00  1.63281907e+00  1.63336759e+00  1.63712959e+00
  1.64025376e+00  1.64476538e+00  1.66324115e+00  1.66919807e+00
  1.67506922e+00  1.67744774e+00  1.68253509e+00  1.68503396e+00
  1.69222663e+00  1.69504106e+00  1.70461336e+00  1.70766526e+00
  1.70959795e+00  1.71836238e+00  1.72377762e+00  1.72880593e+00
  1.73654060e+00  1.73939772e+00  1.74165492e+00  1.75833761e+00
  1.76572235e+00  1.77138889e+00  1.78450539e+00  1.79408603e+00
  1.80473157e+00  1.81220020e+00  1.81911400e+00  1.82688337e+00
  1.84939397e+00  1.85788658e+00  1.86105443e+00  1.87042159e+00
  1.87490829e+00  1.88110088e+00  1.88590977e+00  1.89512859e+00
  1.89941298e+00  1.91554770e+00  1.92476127e+00  1.92759011e+00
  1.93213014e+00  1.95155672e+00  1.95627984e+00  1.96260689e+00
  1.96667754e+00  1.96897049e+00  1.97353678e+00  1.98630525e+00
  1.99427389e+00  2.00205853e+00  2.00973286e+00  2.01765541e+00
  2.03140784e+00  2.04539735e+00  2.04840638e+00  2.05769272e+00
  2.05963053e+00  2.06619280e+00  2.07361777e+00  2.07423303e+00
  2.07883404e+00  2.07898700e+00  2.09383769e+00  2.09616981e+00
  2.10496024e+00  2.11481349e+00  2.11646790e+00  2.12455371e+00
  2.12858225e+00  2.14130476e+00  2.15407207e+00  2.16180000e+00
  2.16868210e+00  2.17120942e+00  2.17519911e+00  2.18765310e+00
  2.19815613e+00  2.20099252e+00  2.20619069e+00  2.22042916e+00
  2.22836957e+00  2.23937152e+00  2.24366259e+00  2.26124507e+00
  2.26646785e+00  2.27395426e+00  2.27814353e+00  2.29232621e+00
  2.29818592e+00  2.30181080e+00  2.31571280e+00  2.32117205e+00
  2.32637412e+00  2.33201868e+00  2.33535591e+00  2.34941857e+00
  2.35320722e+00  2.36045691e+00  2.36813630e+00  2.38375703e+00
  2.39449160e+00  2.40241950e+00  2.41248613e+00  2.42489153e+00
  2.42923563e+00  2.45194744e+00  2.46089073e+00  2.47092585e+00
  2.47971278e+00  2.48175476e+00  2.48815730e+00  2.49422317e+00
  2.50017818e+00  2.51226578e+00  2.51585777e+00  2.51928041e+00
  2.52221420e+00  2.53778786e+00  2.54532065e+00  2.54949514e+00
  2.55265877e+00  2.55422668e+00  2.57061870e+00  2.58112258e+00
  2.58872879e+00  2.59194878e+00  2.60255609e+00  2.60775528e+00
  2.61038088e+00  2.61846601e+00  2.62079154e+00  2.63177435e+00
  2.63734396e+00  2.63992247e+00  2.64645204e+00  2.64938293e+00
  2.65306394e+00  2.66082077e+00  2.66410983e+00  2.67126803e+00
  2.67430844e+00  2.68276175e+00  2.69136702e+00  2.69598403e+00
  2.69877891e+00  2.70214895e+00  2.70572146e+00  2.70991680e+00
  2.71891301e+00  2.72817048e+00  2.72961010e+00  2.73186224e+00
  2.74215505e+00  2.74812160e+00  2.75071149e+00  2.75447494e+00
  2.75898643e+00  2.75986893e+00  2.76556356e+00  2.77024572e+00
  2.77601068e+00  2.77885321e+00  2.78725432e+00  2.79190610e+00
  2.79578762e+00  2.79871553e+00  2.80143086e+00  2.80212248e+00
  2.80625060e+00  2.81011414e+00  2.81793021e+00  2.82559170e+00
  2.82759002e+00  2.83539159e+00  2.83739101e+00  2.84640344e+00
  2.85229516e+00  2.85630006e+00  2.85961534e+00  2.86893619e+00
  2.87293476e+00  2.87556121e+00  2.88949666e+00  2.89499300e+00
  2.89806914e+00  2.90016878e+00  2.91049252e+00  2.91168087e+00
  2.92040422e+00  2.92286465e+00  2.93027355e+00  2.93235226e+00
  2.94209174e+00  2.94569105e+00  2.95361568e+00  2.96698854e+00
  2.97124770e+00  2.97809330e+00  2.98750074e+00  2.99044496e+00
  2.99210198e+00  3.00270875e+00  3.00559001e+00  3.01573747e+00
  3.02581206e+00  3.03080656e+00  3.03597564e+00  3.04402319e+00
  3.05451007e+00  3.05672848e+00  3.06340547e+00  3.06497243e+00
  3.07826242e+00  3.08479262e+00  3.10101152e+00  3.11089707e+00
  3.11338019e+00  3.11764923e+00  3.12498626e+00  3.12640261e+00
  3.13231934e+00  3.13367804e+00  3.13527473e+00  3.13884296e+00
  3.14719937e+00  3.14961307e+00  3.15222442e+00  3.16236902e+00
  3.16520508e+00  3.17430491e+00  3.17792846e+00  3.18083259e+00
  3.18625166e+00  3.19056107e+00  3.19328878e+00  3.19538815e+00
  3.20025618e+00  3.20721470e+00  3.21131488e+00  3.21426619e+00
  3.21726641e+00  3.22142475e+00  3.22504522e+00  3.22598234e+00
  3.23290985e+00  3.23585629e+00  3.24123085e+00  3.24871743e+00
  3.25758049e+00  3.26912975e+00  3.27844481e+00  3.28182698e+00
  3.28620528e+00  3.28990904e+00  3.29572877e+00  3.29695743e+00
  3.30192693e+00  3.30809240e+00  3.31390895e+00  3.31907645e+00
  3.31980971e+00  3.32428167e+00  3.32833662e+00  3.33170672e+00
  3.34590339e+00  3.35380219e+00  3.36253111e+00  3.36480373e+00
  3.36763302e+00  3.37426794e+00  3.37799857e+00  3.38138381e+00
  3.39016273e+00  3.39246370e+00  3.39745001e+00  3.40267999e+00
  3.40341330e+00  3.40796926e+00  3.41444378e+00  3.41807691e+00
  3.42147070e+00  3.42271913e+00  3.42952169e+00  3.43233074e+00
  3.43654866e+00  3.44498709e+00  3.44832669e+00  3.45266585e+00
  3.46115153e+00  3.46444510e+00  3.46919435e+00  3.47674440e+00
  3.48252117e+00  3.48687429e+00  3.49487303e+00  3.50006358e+00
  3.50789068e+00  3.51594293e+00  3.51979151e+00  3.52452727e+00
  3.52734328e+00  3.53208341e+00  3.53854662e+00  3.53993380e+00
  3.54263319e+00  3.54965988e+00  3.55664983e+00  3.55985833e+00
  3.56521348e+00  3.57120185e+00  3.57250011e+00  3.58236481e+00
  3.58758284e+00  3.59970525e+00  3.60275567e+00  3.61350656e+00
  3.61649775e+00  3.61909619e+00  3.62454627e+00  3.63529309e+00
  3.64327293e+00  3.65215742e+00  3.66314832e+00  3.66740870e+00
  3.70551180e+00  3.70704296e+00  3.72118569e+00  3.73559885e+00
  3.74004814e+00  3.74556371e+00  3.75843743e+00  3.76977610e+00
  3.77376201e+00  3.78023350e+00  3.78551889e+00  3.78961453e+00
  3.79732203e+00  3.80589784e+00  3.81259564e+00  3.82703629e+00
  3.86584124e+00  3.87388748e+00  3.88401013e+00  3.90672388e+00
  3.91220498e+00  3.92110636e+00  3.93229631e+00  3.94485412e+00
  3.94947870e+00  3.95673341e+00  3.97062388e+00  3.97927909e+00
  3.98171723e+00  3.99800074e+00  4.01382401e+00  4.02334895e+00
  4.02763420e+00  4.04187090e+00  4.05786787e+00  4.06715760e+00
  4.07779957e+00  4.08236091e+00  4.08913103e+00  4.09194520e+00
  4.10521655e+00  4.10863971e+00  4.11739062e+00  4.13130944e+00
  4.13772187e+00  4.14302788e+00  4.15421036e+00  4.15500191e+00
  4.15941039e+00  4.16840717e+00  4.16989538e+00  4.18028640e+00
  4.18373530e+00  4.19394322e+00  4.20253023e+00  4.20389653e+00
  4.21236211e+00  4.21387919e+00  4.22199586e+00  4.23493401e+00
  4.23848464e+00  4.24214076e+00  4.24941478e+00  4.26190377e+00
  4.26846128e+00  4.28029949e+00  4.28775206e+00  4.29298343e+00
  4.30460909e+00  4.31274099e+00  4.32302491e+00  4.32939287e+00
  4.33467932e+00  4.35897704e+00  4.36677306e+00  4.38321514e+00
  4.40315315e+00  4.40851226e+00  4.43660343e+00  4.43744574e+00
  4.43825335e+00  4.45741647e+00  4.46385115e+00  4.46674062e+00
  4.48644310e+00  4.51149868e+00  4.51858605e+00  4.55226184e+00
  4.56607081e+00  4.59049993e+00  4.62975859e+00  4.63183679e+00
  4.64741042e+00  4.66822660e+00  4.67113480e+00  4.67664703e+00
  4.69412250e+00  4.71888150e+00  4.73311098e+00  4.74160000e+00
  4.75200709e+00  4.76550988e+00  4.77969055e+00  4.80606601e+00
  4.82577915e+00  4.83476197e+00  4.86994973e+00  4.87938973e+00
  4.91185161e+00  4.91896368e+00  4.92486842e+00  4.93203266e+00
  4.94961482e+00  4.96254740e+00  4.97308891e+00  5.00142848e+00
  5.01124393e+00  5.02509971e+00  5.03351167e+00  5.03476481e+00
  5.06576212e+00  5.07460454e+00  5.10976961e+00  5.14257464e+00
  5.15351458e+00  5.17372178e+00  5.19686964e+00  5.20039525e+00
  5.20384976e+00  5.21448011e+00  5.24211420e+00  5.24730110e+00
  5.26552471e+00  5.32905972e+00  5.33163116e+00  5.37966800e+00
  5.41932275e+00  5.42578830e+00  5.43337399e+00  5.45124538e+00
  5.47143346e+00  5.48654537e+00  5.50649057e+00  5.52649040e+00
  5.55322209e+00  5.60192103e+00  5.63969325e+00  5.67064854e+00
  5.72204822e+00  5.76496852e+00  5.77272011e+00  5.79029930e+00
  5.81746984e+00  5.81876326e+00  5.89830403e+00  5.91241617e+00
  5.96474096e+00  6.08412548e+00  6.16810757e+00  6.42784766e+00
  6.70900687e+00  6.72651439e+00  6.85463512e+00  7.01714126e+00
  7.47919879e+00  7.48449473e+00  2.21673798e+01  2.23659359e+01
  2.24109372e+01  2.24600031e+01  2.25067085e+01  2.26110528e+01
  2.26365235e+01  2.26411436e+01  2.26703861e+01  2.27349588e+01
  2.27584023e+01  2.27686027e+01  2.27930643e+01  2.28130719e+01
  2.28425865e+01  2.29085677e+01  2.29422295e+01  2.29993626e+01
  2.30812687e+01  2.31413119e+01  2.32531604e+01  2.33834320e+01
  2.35079588e+01  2.38167060e+01  3.29509388e+01  4.45294165e+01]
nelec by numeric integration = 179.99973225755843
    CPU time for vxc    125.12 sec, wall time      7.07 sec
    CPU time for df vj and vk    347.77 sec, wall time     22.15 sec
E1 = -5501.830965014084  Ecoul = 2548.8804331620277  Exc = -152.296805884371
cycle= 3 E= -1056.27676983599  delta_E= -1.12e-09  |g|= 4.17e-06  |ddm|= 7.48e-05
    CPU time for cycle= 3    479.71 sec, wall time     30.01 sec
  HOMO = -0.180723614704513  LUMO = -0.0644146470415659
  mo_energy =
[-1.92593191e+01 -1.44140073e+01 -1.02944053e+01 -1.02891028e+01
 -1.02714133e+01 -1.02621545e+01 -1.02616932e+01 -1.02485806e+01
 -1.02475197e+01 -1.02438008e+01 -1.02431733e+01 -1.02409297e+01
 -1.02402732e+01 -1.02398625e+01 -1.02308549e+01 -1.02303019e+01
 -1.02282880e+01 -1.02276934e+01 -1.02261183e+01 -1.02255461e+01
 -1.02252204e+01 -1.02244692e+01 -1.02236785e+01 -1.02227568e+01
 -1.02218074e+01 -1.02214069e+01 -1.12173059e+00 -9.80781288e-01
 -8.92500989e-01 -8.76344665e-01 -8.71147488e-01 -8.31939997e-01
 -8.06531171e-01 -7.92251107e-01 -7.81391544e-01 -7.70782029e-01
 -7.61015848e-01 -7.54766112e-01 -7.45085704e-01 -7.27785942e-01
 -6.85654218e-01 -6.60410858e-01 -6.45974435e-01 -6.29732401e-01
 -6.21219500e-01 -6.10869559e-01 -6.05535199e-01 -5.83843647e-01
 -5.71131538e-01 -5.45148818e-01 -5.33138849e-01 -5.18455144e-01
 -5.07240469e-01 -4.96254183e-01 -4.89711645e-01 -4.84309253e-01
 -4.78367695e-01 -4.71207541e-01 -4.70582627e-01 -4.63305462e-01
 -4.55056507e-01 -4.51800505e-01 -4.45903716e-01 -4.33282150e-01
 -4.29905363e-01 -4.24552942e-01 -4.23298661e-01 -4.18239370e-01
 -4.11506838e-01 -4.00968092e-01 -3.97934654e-01 -3.93144873e-01
 -3.86854638e-01 -3.85193499e-01 -3.81350572e-01 -3.79508018e-01
 -3.70358242e-01 -3.61392969e-01 -3.49639477e-01 -3.40166270e-01
 -3.37722126e-01 -3.35044059e-01 -3.08405877e-01 -2.87724871e-01
 -2.79913930e-01 -2.62392870e-01 -2.60215090e-01 -2.53491158e-01
 -2.18379020e-01 -1.80723615e-01 -6.44146470e-02 -3.96578957e-02
 -4.43614551e-03 -2.51776322e-03  5.89048111e-03  1.53498427e-02
  3.50549141e-02  5.39670539e-02  5.42694584e-02  6.17623977e-02
  6.26548677e-02  6.57023396e-02  7.21094937e-02  7.91852352e-02
  8.41560432e-02  9.61512591e-02  9.83836739e-02  9.92862710e-02
  1.03970964e-01  1.07873125e-01  1.10269512e-01  1.18260204e-01
  1.22586873e-01  1.25196123e-01  1.31441410e-01  1.36779336e-01
  1.37985648e-01  1.43698877e-01  1.46890769e-01  1.50502248e-01
  1.54008639e-01  1.57765082e-01  1.63385121e-01  1.64531470e-01
  1.69586648e-01  1.74036964e-01  1.76681473e-01  1.80552699e-01
  1.87478689e-01  1.89868393e-01  1.94444582e-01  1.97933532e-01
  2.06992314e-01  2.11547465e-01  2.14214712e-01  2.23025403e-01
  2.25269632e-01  2.25885217e-01  2.29338257e-01  2.36015163e-01
  2.38072286e-01  2.38476587e-01  2.40386851e-01  2.43038039e-01
  2.47365855e-01  2.51728184e-01  2.55077770e-01  2.56967931e-01
  2.63129452e-01  2.67309070e-01  2.78254252e-01  2.79510738e-01
  2.81565141e-01  2.84592392e-01  2.86037594e-01  2.89296172e-01
  2.96999712e-01  3.00312921e-01  3.00994113e-01  3.02020005e-01
  3.09963910e-01  3.14705843e-01  3.21198630e-01  3.22541461e-01
  3.26500087e-01  3.28468874e-01  3.32500452e-01  3.41346257e-01
  3.41746921e-01  3.46673488e-01  3.47882488e-01  3.49831972e-01
  3.53746374e-01  3.56764686e-01  3.61420688e-01  3.63519051e-01
  3.65370898e-01  3.67702468e-01  3.72780264e-01  3.76048152e-01
  3.77717682e-01  3.81434774e-01  3.83594619e-01  3.89375456e-01
  3.93889169e-01  3.98825728e-01  4.03695607e-01  4.09043908e-01
  4.10113996e-01  4.14545876e-01  4.16299776e-01  4.18918381e-01
  4.21717383e-01  4.26290937e-01  4.29972250e-01  4.36597031e-01
  4.38510519e-01  4.39740999e-01  4.47492806e-01  4.51511604e-01
  4.54926933e-01  4.57408077e-01  4.62324446e-01  4.65410086e-01
  4.65940126e-01  4.73093764e-01  4.77124675e-01  4.78900303e-01
  4.82698152e-01  4.84548384e-01  4.88233478e-01  4.90688067e-01
  4.93635888e-01  4.95950271e-01  5.02300266e-01  5.05702801e-01
  5.08466646e-01  5.17007958e-01  5.18712291e-01  5.26589538e-01
  5.27233234e-01  5.30062311e-01  5.33551398e-01  5.41446775e-01
  5.48836195e-01  5.55278739e-01  5.57341793e-01  5.69808442e-01
  5.78408042e-01  5.80385852e-01  5.82768643e-01  5.92749488e-01
  5.97154072e-01  5.99569499e-01  6.02272296e-01  6.03963121e-01
  6.12662632e-01  6.19625673e-01  6.28923035e-01  6.34722612e-01
  6.39881990e-01  6.42690821e-01  6.49000999e-01  6.50240676e-01
  6.59291306e-01  6.62067076e-01  6.66774801e-01  6.71612163e-01
  6.77571365e-01  6.78824612e-01  6.83595082e-01  6.87547277e-01
  6.90416688e-01  6.95126544e-01  6.98675977e-01  6.99071516e-01
  7.04331859e-01  7.10080764e-01  7.14516932e-01  7.17946452e-01
  7.27616487e-01  7.30708440e-01  7.31980267e-01  7.35558607e-01
  7.37894530e-01  7.41742255e-01  7.45583539e-01  7.53655177e-01
  7.61518415e-01  7.66450421e-01  7.69567963e-01  7.77560848e-01
  7.79221050e-01  7.82180812e-01  7.86683294e-01  7.90282970e-01
  7.93530181e-01  7.98234291e-01  8.04310511e-01  8.10813509e-01
  8.18011106e-01  8.20614953e-01  8.28144610e-01  8.30871250e-01
  8.44957535e-01  8.46815985e-01  8.50925256e-01  8.52649419e-01
  8.57920126e-01  8.63607326e-01  8.67403555e-01  8.77309014e-01
  8.80632407e-01  8.82957527e-01  8.95881429e-01  8.96343109e-01
  9.02887008e-01  9.11852849e-01  9.14821601e-01  9.22130374e-01
  9.25073020e-01  9.27680697e-01  9.31066054e-01  9.42737103e-01
  9.58208585e-01  9.63223432e-01  9.71651702e-01  9.74998745e-01
  9.80825324e-01  9.88188299e-01  1.00157038e+00  1.00322623e+00
  1.00575898e+00  1.00964379e+00  1.01698089e+00  1.02269540e+00
  1.03301776e+00  1.04622995e+00  1.05116575e+00  1.05359299e+00
  1.05621850e+00  1.06420020e+00  1.06965413e+00  1.08280556e+00
  1.08819602e+00  1.09064980e+00  1.09878037e+00  1.10515877e+00
  1.10833735e+00  1.11593282e+00  1.12384713e+00  1.12746989e+00
  1.14438877e+00  1.15303537e+00  1.16094445e+00  1.16715813e+00
  1.17346013e+00  1.18952907e+00  1.19366406e+00  1.19875124e+00
  1.20441875e+00  1.21470380e+00  1.21938349e+00  1.22338575e+00
  1.22718632e+00  1.23299167e+00  1.23628870e+00  1.23937591e+00
  1.24213300e+00  1.24824929e+00  1.25108496e+00  1.25953332e+00
  1.26412484e+00  1.26834662e+00  1.27659609e+00  1.27873573e+00
  1.29609966e+00  1.29887607e+00  1.30396405e+00  1.30746440e+00
  1.31038561e+00  1.31981265e+00  1.32330251e+00  1.33216043e+00
  1.34412851e+00  1.35134230e+00  1.35501712e+00  1.36232935e+00
  1.36954745e+00  1.37443834e+00  1.38892641e+00  1.39252215e+00
  1.40038205e+00  1.40439805e+00  1.40774112e+00  1.41790287e+00
  1.42347622e+00  1.43254970e+00  1.44260803e+00  1.44922461e+00
  1.45590437e+00  1.45829543e+00  1.46217626e+00  1.46561805e+00
  1.47868045e+00  1.47967468e+00  1.48880760e+00  1.49973095e+00
  1.50129772e+00  1.50686901e+00  1.51067991e+00  1.51226460e+00
  1.52193707e+00  1.52458708e+00  1.52917687e+00  1.53214924e+00
  1.53843316e+00  1.54374478e+00  1.54913905e+00  1.54985227e+00
  1.55801699e+00  1.55866802e+00  1.56842359e+00  1.57189873e+00
  1.58571206e+00  1.59374603e+00  1.59884855e+00  1.60318914e+00
  1.60744844e+00  1.60989006e+00  1.61265419e+00  1.62075875e+00
  1.62800348e+00  1.63281902e+00  1.63336755e+00  1.63712960e+00
  1.64025380e+00  1.64476537e+00  1.66324111e+00  1.66919802e+00
  1.67506919e+00  1.67744771e+00  1.68253504e+00  1.68503392e+00
  1.69222658e+00  1.69504099e+00  1.70461328e+00  1.70766518e+00
  1.70959788e+00  1.71836234e+00  1.72377761e+00  1.72880595e+00
  1.73654057e+00  1.73939767e+00  1.74165486e+00  1.75833758e+00
  1.76572228e+00  1.77138886e+00  1.78450535e+00  1.79408595e+00
  1.80473149e+00  1.81220007e+00  1.81911390e+00  1.82688333e+00
  1.84939391e+00  1.85788655e+00  1.86105435e+00  1.87042158e+00
  1.87490824e+00  1.88110082e+00  1.88590971e+00  1.89512853e+00
  1.89941294e+00  1.91554768e+00  1.92476122e+00  1.92759006e+00
  1.93213005e+00  1.95155675e+00  1.95627982e+00  1.96260680e+00
  1.96667746e+00  1.96897047e+00  1.97353679e+00  1.98630519e+00
  1.99427386e+00  2.00205850e+00  2.00973279e+00  2.01765531e+00
  2.03140773e+00  2.04539726e+00  2.04840633e+00  2.05769266e+00
  2.05963049e+00  2.06619269e+00  2.07361775e+00  2.07423301e+00
  2.07883402e+00  2.07898693e+00  2.09383759e+00  2.09616977e+00
  2.10496017e+00  2.11481346e+00  2.11646785e+00  2.12455368e+00
  2.12858220e+00  2.14130467e+00  2.15407198e+00  2.16179991e+00
  2.16868204e+00  2.17120931e+00  2.17519903e+00  2.18765302e+00
  2.19815621e+00  2.20099245e+00  2.20619060e+00  2.22042911e+00
  2.22836946e+00  2.23937160e+00  2.24366251e+00  2.26124503e+00
  2.26646785e+00  2.27395422e+00  2.27814352e+00  2.29232612e+00
  2.29818582e+00  2.30181071e+00  2.31571277e+00  2.32117204e+00
  2.32637408e+00  2.33201864e+00  2.33535591e+00  2.34941851e+00
  2.35320716e+00  2.36045684e+00  2.36813624e+00  2.38375692e+00
  2.39449152e+00  2.40241944e+00  2.41248606e+00  2.42489147e+00
  2.42923562e+00  2.45194741e+00  2.46089066e+00  2.47092578e+00
  2.47971278e+00  2.48175475e+00  2.48815728e+00  2.49422317e+00
  2.50017814e+00  2.51226576e+00  2.51585776e+00  2.51928038e+00
  2.52221413e+00  2.53778780e+00  2.54532059e+00  2.54949512e+00
  2.55265875e+00  2.55422667e+00  2.57061865e+00  2.58112255e+00
  2.58872877e+00  2.59194870e+00  2.60255615e+00  2.60775524e+00
  2.61038087e+00  2.61846593e+00  2.62079154e+00  2.63177434e+00
  2.63734399e+00  2.63992242e+00  2.64645199e+00  2.64938291e+00
  2.65306391e+00  2.66082070e+00  2.66410979e+00  2.67126798e+00
  2.67430839e+00  2.68276169e+00  2.69136696e+00  2.69598399e+00
  2.69877886e+00  2.70214889e+00  2.70572142e+00  2.70991676e+00
  2.71891299e+00  2.72817044e+00  2.72961007e+00  2.73186218e+00
  2.74215498e+00  2.74812155e+00  2.75071145e+00  2.75447489e+00
  2.75898637e+00  2.75986888e+00  2.76556351e+00  2.77024569e+00
  2.77601063e+00  2.77885315e+00  2.78725426e+00  2.79190612e+00
  2.79578755e+00  2.79871550e+00  2.80143084e+00  2.80212245e+00
  2.80625052e+00  2.81011408e+00  2.81793016e+00  2.82559160e+00
  2.82758999e+00  2.83539151e+00  2.83739095e+00  2.84640338e+00
  2.85229509e+00  2.85630002e+00  2.85961526e+00  2.86893612e+00
  2.87293471e+00  2.87556115e+00  2.88949660e+00  2.89499296e+00
  2.89806908e+00  2.90016872e+00  2.91049248e+00  2.91168082e+00
  2.92040418e+00  2.92286458e+00  2.93027352e+00  2.93235218e+00
  2.94209166e+00  2.94569096e+00  2.95361559e+00  2.96698844e+00
  2.97124760e+00  2.97809320e+00  2.98750069e+00  2.99044488e+00
  2.99210188e+00  3.00270867e+00  3.00558993e+00  3.01573739e+00
  3.02581198e+00  3.03080651e+00  3.03597557e+00  3.04402312e+00
  3.05451003e+00  3.05672846e+00  3.06340554e+00  3.06497253e+00
  3.07826233e+00  3.08479254e+00  3.10101151e+00  3.11089701e+00
  3.11338014e+00  3.11764919e+00  3.12498624e+00  3.12640258e+00
  3.13231929e+00  3.13367801e+00  3.13527470e+00  3.13884287e+00
  3.14719931e+00  3.14961302e+00  3.15222435e+00  3.16236892e+00
  3.16520501e+00  3.17430482e+00  3.17792840e+00  3.18083256e+00
  3.18625162e+00  3.19056106e+00  3.19328873e+00  3.19538809e+00
  3.20025616e+00  3.20721463e+00  3.21131485e+00  3.21426616e+00
  3.21726631e+00  3.22142478e+00  3.22504521e+00  3.22598231e+00
  3.23290982e+00  3.23585630e+00  3.24123079e+00  3.24871734e+00
  3.25758044e+00  3.26912965e+00  3.27844475e+00  3.28182693e+00
  3.28620520e+00  3.28990899e+00  3.29572873e+00  3.29695740e+00
  3.30192686e+00  3.30809233e+00  3.31390891e+00  3.31907644e+00
  3.31980964e+00  3.32428164e+00  3.32833656e+00  3.33170664e+00
  3.34590331e+00  3.35380213e+00  3.36253106e+00  3.36480372e+00
  3.36763301e+00  3.37426783e+00  3.37799854e+00  3.38138375e+00
  3.39016267e+00  3.39246364e+00  3.39744993e+00  3.40267995e+00
  3.40341327e+00  3.40796918e+00  3.41444372e+00  3.41807684e+00
  3.42147065e+00  3.42271909e+00  3.42952169e+00  3.43233070e+00
  3.43654864e+00  3.44498702e+00  3.44832667e+00  3.45266587e+00
  3.46115147e+00  3.46444506e+00  3.46919426e+00  3.47674432e+00
  3.48252107e+00  3.48687424e+00  3.49487296e+00  3.50006350e+00
  3.50789062e+00  3.51594289e+00  3.51979144e+00  3.52452721e+00
  3.52734322e+00  3.53208334e+00  3.53854659e+00  3.53993373e+00
  3.54263311e+00  3.54965985e+00  3.55664978e+00  3.55985825e+00
  3.56521342e+00  3.57120181e+00  3.57250005e+00  3.58236475e+00
  3.58758281e+00  3.59970520e+00  3.60275562e+00  3.61350652e+00
  3.61649768e+00  3.61909611e+00  3.62454618e+00  3.63529305e+00
  3.64327290e+00  3.65215741e+00  3.66314826e+00  3.66740865e+00
  3.70551175e+00  3.70704294e+00  3.72118559e+00  3.73559880e+00
  3.74004806e+00  3.74556362e+00  3.75843734e+00  3.76977602e+00
  3.77376195e+00  3.78023344e+00  3.78551882e+00  3.78961445e+00
  3.79732196e+00  3.80589775e+00  3.81259559e+00  3.82703621e+00
  3.86584123e+00  3.87388747e+00  3.88401007e+00  3.90672382e+00
  3.91220491e+00  3.92110630e+00  3.93229638e+00  3.94485413e+00
  3.94947865e+00  3.95673333e+00  3.97062383e+00  3.97927899e+00
  3.98171714e+00  3.99800066e+00  4.01382393e+00  4.02334896e+00
  4.02763416e+00  4.04187082e+00  4.05786779e+00  4.06715751e+00
  4.07779954e+00  4.08236089e+00  4.08913104e+00  4.09194511e+00
  4.10521655e+00  4.10863964e+00  4.11739057e+00  4.13130940e+00
  4.13772182e+00  4.14302783e+00  4.15421035e+00  4.15500186e+00
  4.15941035e+00  4.16840716e+00  4.16989538e+00  4.18028639e+00
  4.18373526e+00  4.19394318e+00  4.20253016e+00  4.20389655e+00
  4.21236206e+00  4.21387908e+00  4.22199579e+00  4.23493397e+00
  4.23848460e+00  4.24214066e+00  4.24941472e+00  4.26190370e+00
  4.26846117e+00  4.28029941e+00  4.28775197e+00  4.29298333e+00
  4.30460909e+00  4.31274090e+00  4.32302489e+00  4.32939284e+00
  4.33467927e+00  4.35897700e+00  4.36677302e+00  4.38321507e+00
  4.40315304e+00  4.40851218e+00  4.43660342e+00  4.43744576e+00
  4.43825335e+00  4.45741648e+00  4.46385107e+00  4.46674056e+00
  4.48644309e+00  4.51149861e+00  4.51858601e+00  4.55226174e+00
  4.56607072e+00  4.59049992e+00  4.62975853e+00  4.63183672e+00
  4.64741036e+00  4.66822650e+00  4.67113469e+00  4.67664695e+00
  4.69412241e+00  4.71888142e+00  4.73311093e+00  4.74159992e+00
  4.75200697e+00  4.76550981e+00  4.77969044e+00  4.80606595e+00
  4.82577912e+00  4.83476191e+00  4.86994967e+00  4.87938965e+00
  4.91185155e+00  4.91896367e+00  4.92486848e+00  4.93203258e+00
  4.94961472e+00  4.96254739e+00  4.97308882e+00  5.00142842e+00
  5.01124386e+00  5.02509977e+00  5.03351162e+00  5.03476488e+00
  5.06576210e+00  5.07460450e+00  5.10976952e+00  5.14257454e+00
  5.15351461e+00  5.17372171e+00  5.19686955e+00  5.20039511e+00
  5.20384993e+00  5.21448005e+00  5.24211432e+00  5.24730109e+00
  5.26552465e+00  5.32905974e+00  5.33163109e+00  5.37966793e+00
  5.41932278e+00  5.42578827e+00  5.43337390e+00  5.45124503e+00
  5.47143343e+00  5.48654529e+00  5.50649050e+00  5.52649031e+00
  5.55322197e+00  5.60192098e+00  5.63969316e+00  5.67064844e+00
  5.72204809e+00  5.76496845e+00  5.77271968e+00  5.79029937e+00
  5.81746973e+00  5.81876282e+00  5.89830382e+00  5.91241633e+00
  5.96474106e+00  6.08412549e+00  6.16810718e+00  6.42784722e+00
  6.70900628e+00  6.72651404e+00  6.85463454e+00  7.01714068e+00
  7.47919823e+00  7.48449418e+00  2.21673797e+01  2.23659359e+01
  2.24109373e+01  2.24600031e+01  2.25067085e+01  2.26110525e+01
  2.26365234e+01  2.26411436e+01  2.26703865e+01  2.27349586e+01
  2.27584023e+01  2.27686026e+01  2.27930641e+01  2.28130716e+01
  2.28425864e+01  2.29085678e+01  2.29422295e+01  2.29993625e+01
  2.30812686e+01  2.31413118e+01  2.32531603e+01  2.33834319e+01
  2.35079587e+01  2.38167059e+01  3.29509391e+01  4.45294155e+01]
nelec by numeric integration = 179.9997322575545
    CPU time for vxc    119.98 sec, wall time      6.57 sec
    CPU time for df vj and vk    342.71 sec, wall time     21.93 sec
E1 = -5501.830986731166  Ecoul = 2548.880455496563  Exc = -152.2968065018235
cycle= 4 E= -1056.27676983599  delta_E=    0  |g|= 3.97e-07  |ddm|= 5.14e-06
    CPU time for cycle= 4    469.81 sec, wall time     29.61 sec
  HOMO = -0.180723607193434  LUMO = -0.0644146325358684
  mo_energy =
[-1.92593190e+01 -1.44140074e+01 -1.02944052e+01 -1.02891028e+01
 -1.02714135e+01 -1.02621546e+01 -1.02616933e+01 -1.02485806e+01
 -1.02475196e+01 -1.02438008e+01 -1.02431734e+01 -1.02409297e+01
 -1.02402730e+01 -1.02398625e+01 -1.02308547e+01 -1.02303018e+01
 -1.02282881e+01 -1.02276933e+01 -1.02261184e+01 -1.02255463e+01
 -1.02252204e+01 -1.02244693e+01 -1.02236784e+01 -1.02227569e+01
 -1.02218074e+01 -1.02214068e+01 -1.12173051e+00 -9.80781360e-01
 -8.92500993e-01 -8.76344663e-01 -8.71147475e-01 -8.31939978e-01
 -8.06531154e-01 -7.92251097e-01 -7.81391554e-01 -7.70782044e-01
 -7.61015862e-01 -7.54766117e-01 -7.45085722e-01 -7.27785938e-01
 -6.85654223e-01 -6.60410849e-01 -6.45974426e-01 -6.29732383e-01
 -6.21219494e-01 -6.10869558e-01 -6.05535201e-01 -5.83843637e-01
 -5.71131532e-01 -5.45148837e-01 -5.33138844e-01 -5.18455136e-01
 -5.07240478e-01 -4.96254184e-01 -4.89711643e-01 -4.84309293e-01
 -4.78367684e-01 -4.71207537e-01 -4.70582574e-01 -4.63305458e-01
 -4.55056512e-01 -4.51800507e-01 -4.45903717e-01 -4.33282152e-01
 -4.29905361e-01 -4.24552964e-01 -4.23298669e-01 -4.18239373e-01
 -4.11506845e-01 -4.00968091e-01 -3.97934661e-01 -3.93144867e-01
 -3.86854631e-01 -3.85193495e-01 -3.81350569e-01 -3.79508016e-01
 -3.70358222e-01 -3.61392962e-01 -3.49639471e-01 -3.40166254e-01
 -3.37722115e-01 -3.35044050e-01 -3.08405874e-01 -2.87724857e-01
 -2.79913930e-01 -2.62392868e-01 -2.60215103e-01 -2.53491163e-01
 -2.18379020e-01 -1.80723607e-01 -6.44146325e-02 -3.96578965e-02
 -4.43614277e-03 -2.51776954e-03  5.89048319e-03  1.53498456e-02
  3.50549110e-02  5.39670578e-02  5.42694573e-02  6.17624016e-02
  6.26548729e-02  6.57023346e-02  7.21094825e-02  7.91852305e-02
  8.41560339e-02  9.61512739e-02  9.83836728e-02  9.92862716e-02
  1.03970969e-01  1.07873134e-01  1.10269506e-01  1.18260203e-01
  1.22586860e-01  1.25196116e-01  1.31441398e-01  1.36779331e-01
  1.37985657e-01  1.43698888e-01  1.46890773e-01  1.50502255e-01
  1.54008648e-01  1.57765087e-01  1.63385110e-01  1.64531482e-01
  1.69586664e-01  1.74036968e-01  1.76681483e-01  1.80552719e-01
  1.87478700e-01  1.89868417e-01  1.94444586e-01  1.97933524e-01
  2.06992321e-01  2.11547477e-01  2.14214717e-01  2.23025410e-01
  2.25269630e-01  2.25885223e-01  2.29338251e-01  2.36015164e-01
  2.38072284e-01  2.38476579e-01  2.40386850e-01  2.43038033e-01
  2.47365860e-01  2.51728193e-01  2.55077769e-01  2.56967930e-01
  2.63129459e-01  2.67309081e-01  2.78254253e-01  2.79510739e-01
  2.81565144e-01  2.84592403e-01  2.86037600e-01  2.89296171e-01
  2.96999712e-01  3.00312922e-01  3.00994111e-01  3.02020007e-01
  3.09963923e-01  3.14705850e-01  3.21198628e-01  3.22541467e-01
  3.26500082e-01  3.28468879e-01  3.32500465e-01  3.41346252e-01
  3.41746925e-01  3.46673496e-01  3.47882496e-01  3.49831974e-01
  3.53746376e-01  3.56764688e-01  3.61420693e-01  3.63519060e-01
  3.65370900e-01  3.67702469e-01  3.72780263e-01  3.76048153e-01
  3.77717678e-01  3.81434777e-01  3.83594616e-01  3.89375466e-01
  3.93889168e-01  3.98825731e-01  4.03695605e-01  4.09043909e-01
  4.10114000e-01  4.14545886e-01  4.16299776e-01  4.18918382e-01
[...]
  1.00575898e+00  1.00964379e+00  1.01698089e+00  1.02269541e+00
  1.03301777e+00  1.04622995e+00  1.05116575e+00  1.05359298e+00
  1.05621850e+00  1.06420021e+00  1.06965414e+00  1.08280556e+00
  1.08819601e+00  1.09064980e+00  1.09878037e+00  1.10515877e+00
  1.10833735e+00  1.11593282e+00  1.12384713e+00  1.12746990e+00
  1.14438878e+00  1.15303538e+00  1.16094445e+00  1.16715814e+00
  1.17346013e+00  1.18952908e+00  1.19366406e+00  1.19875125e+00
  1.20441876e+00  1.21470380e+00  1.21938350e+00  1.22338575e+00
  1.22718633e+00  1.23299168e+00  1.23628870e+00  1.23937591e+00
  1.24213300e+00  1.24824929e+00  1.25108496e+00  1.25953333e+00
  1.26412484e+00  1.26834662e+00  1.27659608e+00  1.27873573e+00
  1.29609967e+00  1.29887608e+00  1.30396404e+00  1.30746441e+00
  1.31038562e+00  1.31981266e+00  1.32330252e+00  1.33216043e+00
  1.34412852e+00  1.35134231e+00  1.35501713e+00  1.36232936e+00
  1.36954746e+00  1.37443835e+00  1.38892642e+00  1.39252216e+00
  1.40038206e+00  1.40439805e+00  1.40774112e+00  1.41790288e+00
  1.42347621e+00  1.43254971e+00  1.44260802e+00  1.44922460e+00
  1.45590438e+00  1.45829543e+00  1.46217626e+00  1.46561805e+00
  1.47868044e+00  1.47967468e+00  1.48880759e+00  1.49973094e+00
  1.50129772e+00  1.50686901e+00  1.51067991e+00  1.51226459e+00
  1.52193708e+00  1.52458707e+00  1.52917686e+00  1.53214922e+00
  1.53843316e+00  1.54374479e+00  1.54913904e+00  1.54985226e+00
  1.55801699e+00  1.55866803e+00  1.56842359e+00  1.57189874e+00
  1.58571207e+00  1.59374603e+00  1.59884854e+00  1.60318913e+00
  1.60744843e+00  1.60989006e+00  1.61265418e+00  1.62075875e+00
  1.62800347e+00  1.63281902e+00  1.63336755e+00  1.63712959e+00
  1.64025381e+00  1.64476538e+00  1.66324110e+00  1.66919802e+00
  1.67506919e+00  1.67744771e+00  1.68253504e+00  1.68503391e+00
  1.69222657e+00  1.69504099e+00  1.70461329e+00  1.70766518e+00
  1.70959788e+00  1.71836233e+00  1.72377762e+00  1.72880595e+00
  1.73654056e+00  1.73939768e+00  1.74165486e+00  1.75833757e+00
  1.76572229e+00  1.77138885e+00  1.78450535e+00  1.79408596e+00
  1.80473150e+00  1.81220009e+00  1.81911391e+00  1.82688333e+00
  1.84939392e+00  1.85788657e+00  1.86105436e+00  1.87042158e+00
  1.87490824e+00  1.88110081e+00  1.88590972e+00  1.89512853e+00
  1.89941294e+00  1.91554769e+00  1.92476123e+00  1.92759007e+00
  1.93213007e+00  1.95155676e+00  1.95627981e+00  1.96260681e+00
  1.96667747e+00  1.96897046e+00  1.97353677e+00  1.98630518e+00
  1.99427385e+00  2.00205849e+00  2.00973280e+00  2.01765533e+00
  2.03140776e+00  2.04539728e+00  2.04840634e+00  2.05769267e+00
  2.05963048e+00  2.06619271e+00  2.07361774e+00  2.07423303e+00
  2.07883402e+00  2.07898694e+00  2.09383760e+00  2.09616977e+00
  2.10496017e+00  2.11481348e+00  2.11646784e+00  2.12455369e+00
  2.12858221e+00  2.14130469e+00  2.15407198e+00  2.16179992e+00
  2.16868204e+00  2.17120931e+00  2.17519903e+00  2.18765302e+00
  2.19815620e+00  2.20099245e+00  2.20619061e+00  2.22042912e+00
  2.22836949e+00  2.23937160e+00  2.24366252e+00  2.26124501e+00
  2.26646783e+00  2.27395422e+00  2.27814350e+00  2.29232615e+00
  2.29818584e+00  2.30181072e+00  2.31571276e+00  2.32117203e+00
  2.32637408e+00  2.33201864e+00  2.33535591e+00  2.34941851e+00
  2.35320716e+00  2.36045686e+00  2.36813625e+00  2.38375694e+00
  2.39449152e+00  2.40241944e+00  2.41248606e+00  2.42489148e+00
  2.42923561e+00  2.45194741e+00  2.46089067e+00  2.47092579e+00
  2.47971276e+00  2.48175474e+00  2.48815727e+00  2.49422317e+00
  2.50017815e+00  2.51226575e+00  2.51585776e+00  2.51928037e+00
  2.52221413e+00  2.53778780e+00  2.54532058e+00  2.54949511e+00
  2.55265875e+00  2.55422665e+00  2.57061864e+00  2.58112255e+00
  2.58872877e+00  2.59194870e+00  2.60255616e+00  2.60775524e+00
  2.61038087e+00  2.61846594e+00  2.62079154e+00  2.63177433e+00
  2.63734398e+00  2.63992242e+00  2.64645200e+00  2.64938290e+00
  2.65306389e+00  2.66082069e+00  2.66410978e+00  2.67126798e+00
  2.67430840e+00  2.68276169e+00  2.69136696e+00  2.69598399e+00
  2.69877885e+00  2.70214889e+00  2.70572141e+00  2.70991677e+00
  2.71891299e+00  2.72817043e+00  2.72961007e+00  2.73186217e+00
  2.74215499e+00  2.74812155e+00  2.75071146e+00  2.75447491e+00
  2.75898638e+00  2.75986889e+00  2.76556351e+00  2.77024569e+00
  2.77601064e+00  2.77885316e+00  2.78725426e+00  2.79190610e+00
  2.79578755e+00  2.79871551e+00  2.80143085e+00  2.80212244e+00
  2.80625053e+00  2.81011409e+00  2.81793016e+00  2.82559161e+00
  2.82758999e+00  2.83539152e+00  2.83739096e+00  2.84640337e+00
  2.85229509e+00  2.85630002e+00  2.85961526e+00  2.86893612e+00
  2.87293471e+00  2.87556116e+00  2.88949661e+00  2.89499296e+00
  2.89806907e+00  2.90016872e+00  2.91049248e+00  2.91168084e+00
  2.92040418e+00  2.92286459e+00  2.93027354e+00  2.93235218e+00
  2.94209167e+00  2.94569097e+00  2.95361560e+00  2.96698845e+00
  2.97124761e+00  2.97809322e+00  2.98750069e+00  2.99044489e+00
  2.99210189e+00  3.00270868e+00  3.00558993e+00  3.01573740e+00
  3.02581198e+00  3.03080652e+00  3.03597557e+00  3.04402310e+00
  3.05451002e+00  3.05672845e+00  3.06340553e+00  3.06497252e+00
  3.07826234e+00  3.08479256e+00  3.10101150e+00  3.11089701e+00
  3.11338014e+00  3.11764918e+00  3.12498624e+00  3.12640257e+00
  3.13231930e+00  3.13367801e+00  3.13527469e+00  3.13884288e+00
  3.14719932e+00  3.14961302e+00  3.15222435e+00  3.16236893e+00
  3.16520501e+00  3.17430483e+00  3.17792840e+00  3.18083256e+00
  3.18625162e+00  3.19056106e+00  3.19328872e+00  3.19538809e+00
  3.20025616e+00  3.20721463e+00  3.21131485e+00  3.21426616e+00
  3.21726632e+00  3.22142476e+00  3.22504521e+00  3.22598231e+00
  3.23290982e+00  3.23585630e+00  3.24123079e+00  3.24871735e+00
  3.25758044e+00  3.26912966e+00  3.27844476e+00  3.28182693e+00
  3.28620521e+00  3.28990899e+00  3.29572873e+00  3.29695740e+00
  3.30192686e+00  3.30809233e+00  3.31390890e+00  3.31907642e+00
  3.31980964e+00  3.32428163e+00  3.32833656e+00  3.33170663e+00
  3.34590330e+00  3.35380212e+00  3.36253106e+00  3.36480372e+00
  3.36763301e+00  3.37426784e+00  3.37799854e+00  3.38138376e+00
  3.39016267e+00  3.39246364e+00  3.39744994e+00  3.40267994e+00
  3.40341326e+00  3.40796919e+00  3.41444372e+00  3.41807685e+00
  3.42147065e+00  3.42271909e+00  3.42952168e+00  3.43233070e+00
  3.43654863e+00  3.44498703e+00  3.44832668e+00  3.45266587e+00
  3.46115147e+00  3.46444505e+00  3.46919426e+00  3.47674433e+00
  3.48252107e+00  3.48687423e+00  3.49487297e+00  3.50006351e+00
  3.50789063e+00  3.51594288e+00  3.51979144e+00  3.52452722e+00
  3.52734322e+00  3.53208335e+00  3.53854660e+00  3.53993373e+00
  3.54263311e+00  3.54965985e+00  3.55664979e+00  3.55985826e+00
  3.56521342e+00  3.57120181e+00  3.57250007e+00  3.58236476e+00
  3.58758280e+00  3.59970520e+00  3.60275562e+00  3.61350651e+00
  3.61649769e+00  3.61909613e+00  3.62454620e+00  3.63529304e+00
  3.64327290e+00  3.65215742e+00  3.66314827e+00  3.66740865e+00
  3.70551177e+00  3.70704293e+00  3.72118560e+00  3.73559880e+00
  3.74004807e+00  3.74556363e+00  3.75843735e+00  3.76977602e+00
  3.77376196e+00  3.78023345e+00  3.78551883e+00  3.78961445e+00
  3.79732197e+00  3.80589776e+00  3.81259560e+00  3.82703622e+00
  3.86584123e+00  3.87388747e+00  3.88401008e+00  3.90672382e+00
  3.91220490e+00  3.92110630e+00  3.93229638e+00  3.94485410e+00
  3.94947865e+00  3.95673332e+00  3.97062384e+00  3.97927901e+00
  3.98171716e+00  3.99800067e+00  4.01382393e+00  4.02334895e+00
  4.02763415e+00  4.04187082e+00  4.05786779e+00  4.06715751e+00
  4.07779953e+00  4.08236089e+00  4.08913102e+00  4.09194512e+00
  4.10521653e+00  4.10863964e+00  4.11739058e+00  4.13130939e+00
  4.13772182e+00  4.14302784e+00  4.15421035e+00  4.15500187e+00
  4.15941035e+00  4.16840717e+00  4.16989537e+00  4.18028640e+00
  4.18373525e+00  4.19394317e+00  4.20253016e+00  4.20389654e+00
  4.21236205e+00  4.21387907e+00  4.22199580e+00  4.23493397e+00
  4.23848460e+00  4.24214066e+00  4.24941472e+00  4.26190369e+00
  4.26846119e+00  4.28029941e+00  4.28775197e+00  4.29298332e+00
  4.30460909e+00  4.31274088e+00  4.32302488e+00  4.32939283e+00
  4.33467926e+00  4.35897702e+00  4.36677302e+00  4.38321507e+00
  4.40315305e+00  4.40851218e+00  4.43660344e+00  4.43744577e+00
  4.43825336e+00  4.45741646e+00  4.46385109e+00  4.46674057e+00
  4.48644308e+00  4.51149860e+00  4.51858600e+00  4.55226174e+00
  4.56607072e+00  4.59049993e+00  4.62975854e+00  4.63183672e+00
  4.64741037e+00  4.66822651e+00  4.67113471e+00  4.67664695e+00
  4.69412242e+00  4.71888142e+00  4.73311094e+00  4.74159992e+00
  4.75200700e+00  4.76550980e+00  4.77969045e+00  4.80606596e+00
  4.82577913e+00  4.83476193e+00  4.86994967e+00  4.87938966e+00
  4.91185154e+00  4.91896366e+00  4.92486843e+00  4.93203259e+00
  4.94961472e+00  4.96254740e+00  4.97308883e+00  5.00142841e+00
  5.01124385e+00  5.02509973e+00  5.03351162e+00  5.03476482e+00
  5.06576211e+00  5.07460450e+00  5.10976952e+00  5.14257455e+00
  5.15351461e+00  5.17372171e+00  5.19686956e+00  5.20039514e+00
  5.20384985e+00  5.21448005e+00  5.24211425e+00  5.24730108e+00
  5.26552464e+00  5.32905974e+00  5.33163110e+00  5.37966794e+00
  5.41932277e+00  5.42578826e+00  5.43337390e+00  5.45124509e+00
  5.47143342e+00  5.48654530e+00  5.50649051e+00  5.52649033e+00
  5.55322198e+00  5.60192096e+00  5.63969317e+00  5.67064846e+00
  5.72204811e+00  5.76496847e+00  5.77271975e+00  5.79029931e+00
  5.81746975e+00  5.81876290e+00  5.89830386e+00  5.91241625e+00
  5.96474099e+00  6.08412545e+00  6.16810725e+00  6.42784730e+00
  6.70900638e+00  6.72651410e+00  6.85463464e+00  7.01714078e+00
  7.47919833e+00  7.48449427e+00  2.21673797e+01  2.23659358e+01
  2.24109372e+01  2.24600031e+01  2.25067085e+01  2.26110525e+01
  2.26365234e+01  2.26411436e+01  2.26703865e+01  2.27349586e+01
  2.27584023e+01  2.27686026e+01  2.27930641e+01  2.28130717e+01
  2.28425864e+01  2.29085678e+01  2.29422295e+01  2.29993624e+01
  2.30812686e+01  2.31413119e+01  2.32531604e+01  2.33834319e+01
  2.35079588e+01  2.38167059e+01  3.29509390e+01  4.45294157e+01]
nelec by numeric integration = 179.99973225754707
    CPU time for vxc    115.42 sec, wall time      6.29 sec
    CPU time for df vj and vk    343.37 sec, wall time     21.76 sec
E1 = -5501.830984497793  Ecoul = 2548.8804533551006  Exc = -152.29680659373327
Extra cycle  E= -1056.27676983599  delta_E= 9.09e-13  |g|= 7.51e-07  |ddm|= 1.27e-06
    CPU time for scf_cycle   3117.84 sec, wall time    211.22 sec
    CPU time for SCF   3117.89 sec, wall time    211.22 sec
converged SCF energy = -1056.27676983599
SCF Done after 211.25 seconds
after SCF memory used: 8.72 GB
Converting <class 'pyscf.df.df_jk.density_fit.<locals>.DFHF'> to RHF
Converting <class 'pyscf.df.df_jk.density_fit.<locals>.DFHF'> to RHF
hdiag shape (75780,)
n_occ =  90
n_vir =  842
max_vir =  266
A_size =  75780
A_reduced_size = 23940
a_x = 0.25
beta = 0.6575
alpha = 1.54
Q-Gamma tensors building time = 0.56
after Q matrix memory used: 8.91 GB
TDDFT
|-------- In-house Developed TDDFT Starts ---------|
Residual conv = 1e-05

Number of excited states = 20
Initial guess:   sTDDFT
Preconditioner:  sTDDFT
A matrix size =  75780
setting initial guess
sTDDFT Convergence tol = 1.00e-03
sTDDFT diagonalization Converged
after  5 iterations; 20.2541 seconds
final subspace 106
max_norm =  7.27e-04
MVcost     6.7871s 33.51%
GScost     11.3578s 56.08%
subgencost 1.2394s 6.12%
subcost    0.1168s 0.58%
sTDDFT excitation energy:
[2.50890849 2.95077589 3.53772485 3.79466189 3.86686222 3.92442958
 4.20246969 4.31255612 4.3628564  4.45383051 4.51861702 4.76205015
 4.79662976 4.81817427 4.92053308 4.98287073 5.06296865 5.14735251
 5.17879874 5.25060008 5.28227966 5.31464573 5.41965959 5.49102335
 5.58917637 5.63343912 5.72895952 5.74112616]
new_m = 28
initial guess done

iteration 0
beginning of step 0 memory used: 10.41 GB
    CPU time for df vj and vk   9547.20 sec, wall time    551.91 sec
subspace size: 28
Maximum residual norm:  8.59e-02
unconverged states [0, 1, 2, 3, 4, 5, 6, 7, 8, 9, 10, 11, 12, 13, 14, 15, 16, 17, 18, 19]
sTDDFT_preconditioner conv 0.01
sTDDFT preconditioning Done
after 11 steps; 23.0956 s
final subspace 104
max_norm =  7.95e-03
initial_cost 0.7791s  3.37%
MVcost     6.3511s  27.50%
GScost     11.4580s  49.61%
subgencost 3.5880s  15.54%
subcost    0.1687s  0.73%
m & new_m 28 48

iteration 1
beginning of step 1 memory used: 10.51 GB
    CPU time for df vj and vk   7111.62 sec, wall time    416.50 sec
subspace size: 48
Maximum residual norm:  2.97e-02
unconverged states [0, 1, 2, 3, 4, 5, 6, 7, 8, 9, 10, 11, 12, 13, 14, 15, 16, 17, 18, 19]
sTDDFT_preconditioner conv 0.01
sTDDFT preconditioning Done
after 8 steps; 21.8879 s
final subspace 105
max_norm =  7.31e-03
initial_cost 0.7761s  3.55%
MVcost     6.3145s  28.85%
GScost     11.8364s  54.08%
subgencost 2.2641s  10.34%
subcost    0.1749s  0.80%
m & new_m 48 68

iteration 2
beginning of step 2 memory used: 10.55 GB
    CPU time for df vj and vk   6911.95 sec, wall time    403.99 sec
subspace size: 68
Maximum residual norm:  8.29e-03
unconverged states [0, 1, 2, 3, 4, 5, 6, 7, 8, 9, 10, 11, 12, 13, 14, 15, 16, 17, 18, 19]
sTDDFT_preconditioner conv 0.01
sTDDFT preconditioning Done
after 10 steps; 22.9175 s
final subspace 103
max_norm =  7.91e-03
initial_cost 0.8012s  3.50%
MVcost     6.5870s  28.74%
GScost     11.4391s  49.91%
subgencost 3.1520s  13.75%
subcost    0.1560s  0.68%
m & new_m 68 88

iteration 3
beginning of step 3 memory used: 10.57 GB
    CPU time for df vj and vk   6861.48 sec, wall time    400.40 sec
subspace size: 88
Maximum residual norm:  2.48e-03
unconverged states [0, 1, 2, 3, 4, 5, 6, 7, 8, 9, 10, 11, 12, 13, 14, 15, 16, 17, 18, 19]
sTDDFT_preconditioner conv 0.01
sTDDFT preconditioning Done
after 10 steps; 24.0884 s
final subspace 105
max_norm =  7.50e-03
initial_cost 0.7991s  3.32%
MVcost     6.7595s  28.06%
GScost     12.3197s  51.14%
subgencost 3.2820s  13.62%
subcost    0.1313s  0.54%
m & new_m 88 108

iteration 4
beginning of step 4 memory used: 10.65 GB
    CPU time for df vj and vk   6890.07 sec, wall time    402.70 sec
subspace size: 108
Maximum residual norm:  6.02e-04
unconverged states [0, 1, 2, 3, 4, 5, 6, 7, 8, 9, 10, 11, 12, 13, 14, 15, 16, 17, 18, 19]
sTDDFT_preconditioner conv 0.01
sTDDFT preconditioning Done
after 10 steps; 24.0787 s
final subspace 107
max_norm =  5.44e-03
initial_cost 0.8056s  3.35%
MVcost     6.4967s  26.98%
GScost     12.5834s  52.26%
subgencost 3.2729s  13.59%
subcost    0.1407s  0.58%
m & new_m 108 128

iteration 5
beginning of step 5 memory used: 10.58 GB
    CPU time for df vj and vk   6847.82 sec, wall time    400.59 sec
subspace size: 128
Maximum residual norm:  1.46e-04
unconverged states [0, 1, 2, 3, 4, 5, 6, 7, 8, 9, 10, 11, 12, 13, 14, 15, 16, 17, 18, 19]
sTDDFT_preconditioner conv 0.01
sTDDFT preconditioning Done
after 12 steps; 24.7462 s
final subspace 106
max_norm =  6.56e-03
initial_cost 0.8022s  3.24%
MVcost     6.4878s  26.22%
GScost     12.2695s  49.58%
subgencost 4.0156s  16.23%
subcost    0.1837s  0.74%
m & new_m 128 148

iteration 6
beginning of step 6 memory used: 10.60 GB
    CPU time for df vj and vk   6949.03 sec, wall time    407.31 sec
subspace size: 148
Maximum residual norm:  2.98e-05
unconverged states [6, 7, 10, 15, 16, 19]
sTDDFT_preconditioner conv 0.01
sTDDFT preconditioning Done
after 16 steps; 8.6915 s
final subspace 60
max_norm =  8.44e-03
initial_cost 0.1008s  1.16%
MVcost     3.1106s  35.79%
GScost     2.7897s  32.10%
subgencost 2.1306s  24.51%
subcost    0.0558s  0.64%
m & new_m 148 154

iteration 7
beginning of step 7 memory used: 10.60 GB
    CPU time for df vj and vk   2052.32 sec, wall time    121.35 sec
subspace size: 154
Maximum residual norm:  7.15e-06
TDDFT precedure Done

============= TDDFT Calculation Done ==============
after 8 iterations 4389.06 s
Final subspace  154
preconditioning cost 150.3608 0.03 %
max_norm =  7.15e-06
Total TDDFT memory used: 10.54 GB
Excited State energies (eV) =
 [2.73551724 3.1975347  3.76916953 3.98606898 4.10802542 4.18927651
 4.45884735 4.5382954  4.61174039 4.72326589 4.75502238 5.04015089
 5.07028885 5.09185805 5.18070471 5.22766091 5.30456615 5.44968303
 5.48136934 5.51665574]

Number of excited states = 20
Initial guess:   Adiag
Preconditioner:  Adiag
A matrix size =  75780
new_m = 28
initial guess done

iteration 0
beginning of step 0 memory used: 10.47 GB
    CPU time for df vj and vk   9598.48 sec, wall time    559.37 sec
subspace size: 28
Maximum residual norm:  1.31e-01
unconverged states [0, 1, 2, 3, 4, 5, 6, 7, 8, 9, 10, 11, 12, 13, 14, 15, 16, 17, 18, 19]
m & new_m 28 48

iteration 1
beginning of step 1 memory used: 10.55 GB
    CPU time for df vj and vk   6801.29 sec, wall time    397.57 sec
subspace size: 48
Maximum residual norm:  4.25e-02
unconverged states [0, 1, 2, 3, 4, 5, 6, 7, 8, 9, 10, 11, 12, 13, 14, 15, 16, 17, 18, 19]
m & new_m 48 68

iteration 2
beginning of step 2 memory used: 10.58 GB
    CPU time for df vj and vk   6840.20 sec, wall time    400.48 sec
subspace size: 68
Maximum residual norm:  2.27e-02
unconverged states [0, 1, 2, 3, 4, 5, 6, 7, 8, 9, 10, 11, 12, 13, 14, 15, 16, 17, 18, 19]
m & new_m 68 88

iteration 3
beginning of step 3 memory used: 10.58 GB
    CPU time for df vj and vk   6852.53 sec, wall time    401.74 sec
subspace size: 88
Maximum residual norm:  1.52e-02
unconverged states [0, 1, 2, 3, 4, 5, 6, 7, 8, 9, 10, 11, 12, 13, 14, 15, 16, 17, 18, 19]
m & new_m 88 108

iteration 4
beginning of step 4 memory used: 10.60 GB
    CPU time for df vj and vk   6906.38 sec, wall time    404.07 sec
subspace size: 108
Maximum residual norm:  3.97e-03
unconverged states [0, 1, 2, 3, 4, 5, 6, 7, 8, 9, 10, 11, 12, 13, 14, 15, 16, 17, 18, 19]
m & new_m 108 128

iteration 5
beginning of step 5 memory used: 10.60 GB
    CPU time for df vj and vk   6798.41 sec, wall time    397.79 sec
subspace size: 128
Maximum residual norm:  1.47e-03
unconverged states [0, 1, 2, 3, 4, 5, 6, 7, 8, 9, 10, 11, 12, 13, 14, 15, 16, 17, 18, 19]
m & new_m 128 148

iteration 6
beginning of step 6 memory used: 10.63 GB
    CPU time for df vj and vk   6932.50 sec, wall time    406.15 sec
subspace size: 148
Maximum residual norm:  3.75e-04
unconverged states [2, 3, 5, 6, 7, 8, 9, 10, 11, 12, 13, 14, 15, 16, 17, 18, 19]
m & new_m 148 165

iteration 7
beginning of step 7 memory used: 10.59 GB
    CPU time for df vj and vk   5801.34 sec, wall time    340.38 sec
subspace size: 165
Maximum residual norm:  1.09e-04
unconverged states [15, 16, 17, 18, 19]
m & new_m 165 170

iteration 8
beginning of step 8 memory used: 10.60 GB
    CPU time for df vj and vk   1690.17 sec, wall time    101.15 sec
subspace size: 170
Maximum residual norm:  2.79e-05
unconverged states [19]
m & new_m 170 171

iteration 9
beginning of step 9 memory used: 10.52 GB
    CPU time for df vj and vk    342.67 sec, wall time     22.80 sec
subspace size: 171
Maximum residual norm:  7.02e-06
TDDFT precedure Done

============= TDDFT Calculation Done ==============
after 10 iterations 4674.50 s
Final subspace  171
preconditioning cost 0.6420 0.00 %
max_norm =  7.02e-06
Total TDDFT memory used: 10.53 GB
Excited State energies (eV) =
 [2.73551724 3.1975347  3.76916953 3.98606897 4.10802542 4.18927651
 4.45884735 4.5382954  4.61174039 4.72326589 4.75502238 5.04015089
 5.07028885 5.09185805 5.18070471 5.22766091 5.30456615 5.44968303
 5.48136934 5.51665574]
xyzfile = 47_Dihydroisobenzofuran_C5.xyz
checkfile = True
method = RKS
functional = pbe0
basis_set = def2-tzvp
density_fit = True
grid_level = 3
nstates = 20
pytd = False
TDA = False
TDDFT = True
dynpol = False
dynpol_omega = []
stapol = False
sTDA = False
sTDDFT = False
Truncate_test = False
truncate_virtual = 40.0
ip_options = [0, 1]
conv_tolerance = 1e-05
initial_TOL = 0.001
precond_TOL = 0.01
extrainitial = 8
max = 30
eigensolver_tol = 1e-05
memory = 50000
verbose = 5
beta = []
alpha = []
|-------- In-house Developed TDDFT Ends ----------|
