curpath /scratch/pbsjobs/job.15971980.hpc
lib.num_threads() =  16
at beginning memory used: 51.86328125 MB
mol.max_memory 50000


System: uname_result(system='Linux', node='compt177', release='3.10.0-1127.el7.x86_64', version='#1 SMP Tue Feb 18 16:39:12 EST 2020', machine='x86_64', processor='x86_64')  Threads 16
Python 3.7.0 (default, Aug 23 2018, 14:24:33) 
[GCC 6.3.0]
numpy 1.18.1  scipy 1.4.1
Date: Thu Jul  8 00:16:45 2021
PySCF version 1.7.4
PySCF path  /home/zzz6/.local/lib/python3.7/site-packages/pyscf

[CONFIG] conf_file None
[INPUT] verbose = 5
[INPUT] max_memory = 50000 
[INPUT] num. atoms = 26
[INPUT] num. electrons = 144
[INPUT] charge = 0
[INPUT] spin (= nelec alpha-beta = 2S) = 0
[INPUT] symmetry False subgroup None
[INPUT] Mole.unit = angstrom
[INPUT]  1 O      4.247987306424  -1.846927181248  -1.316359592485 AA    8.027532589770  -3.490186544573  -2.487559111241 Bohr
[INPUT]  2 C      4.495218970863  -1.223252391978  -0.311178858723 AA    8.494732724881  -2.311612002057  -0.588042818741 Bohr
[INPUT]  3 O      5.746433820852  -1.106328913787   0.214862977101 AA   10.859186114349  -2.090658650745   0.406032181031 Bohr
[INPUT]  4 C      3.509216367140  -0.399704138959   0.514502740416 AA    6.631457845735  -0.755331353487   0.972269269724 Bohr
[INPUT]  5 C      3.655927121840   1.110982794313   0.152825984330 AA    6.908700991647   2.099453210356   0.288799255100 Bohr
[INPUT]  6 S      2.001806354916   1.822091089423   0.511223281500 AA    3.782865765205   3.443253133019   0.966071990537 Bohr
[INPUT]  7 C      1.321109313061   0.151573057195   0.334054203298 AA    2.496534782298   0.286431565961   0.631270954993 Bohr
[INPUT]  8 C     -0.137401260025   0.027449752267   0.256414050786 AA   -0.259650750618   0.051872513972   0.484552330475 Bohr
[INPUT]  9 N     -0.822841579411  -1.054074765570   0.499365986980 AA   -1.554945228991  -1.991912621742   0.943664951315 Bohr
[INPUT] 10 C     -2.171244089715  -0.833372234478   0.337530478236 AA   -4.103056679141  -1.574845282981   0.637840162559 Bohr
[INPUT] 11 C     -3.188944901761  -1.793493075299   0.521545499596 AA   -6.026232490656  -3.389210718619   0.985578155736 Bohr
[INPUT] 12 C     -4.516200867549  -1.426439718153   0.322930151993 AA   -8.534382763191  -2.695580400510   0.610249544631 Bohr
[INPUT] 13 C     -4.858863744859  -0.102915970426  -0.060177282211 AA   -9.181921754362  -0.194482997950  -0.113718582300 Bohr
[INPUT] 14 O     -6.153679479532   0.273822247160  -0.257752929220 AA  -11.628768874672   0.517449053946  -0.487082444030 Bohr
[INPUT] 15 C     -3.869689467178   0.874241015057  -0.250073650787 AA   -7.312653280081   1.652076085319  -0.472570710957 Bohr
[INPUT] 16 C     -2.536762001764   0.497763179425  -0.047705033480 AA   -4.793785426538   0.940636084006  -0.090149448041 Bohr
[INPUT] 17 S     -1.095127702652   1.467663949435  -0.213573628797 AA   -2.069491429437   2.773482907330  -0.403595665857 Bohr
[INPUT] 18 N      2.138501848622  -0.834023223936   0.308052414711 AA    4.041182810773  -1.576075474766   0.582134695814 Bohr
[INPUT] 19 H      6.339712538605  -1.605293514780  -0.385969605625 AA   11.980320406435  -3.033565092474  -0.729376847037 Bohr
[INPUT] 20 H      3.757722065708  -0.543934654700   1.585092122068 AA    7.101065556423  -1.027887527042   2.995389992914 Bohr
[INPUT] 21 H      4.422945878214   1.614197742394   0.758799935358 AA    8.358156373598   3.050391644015   1.433924061165 Bohr
[INPUT] 22 H      3.878922986814   1.250550187094  -0.918987595985 AA    7.330102103358   2.363197358632  -1.736634868284 Bohr
[INPUT] 23 H     -2.917292680084  -2.810780199221   0.815517430166 AA   -5.512884190557  -5.311604772877   1.541104592822 Bohr
[INPUT] 24 H     -5.315959020949  -2.163979331863   0.461630263512 AA  -10.045706639004  -4.089328276441   0.872354768848 Bohr
[INPUT] 25 H     -6.732585429241  -0.492208902542  -0.094463800341 AA  -12.722742571503  -0.930140021878  -0.178510711330 Bohr
[INPUT] 26 H     -4.159702348339   1.885513203176  -0.544685542396 AA   -7.860698198070   3.563103558255  -1.029306499139 Bohr
[INPUT] ---------------- BASIS SET ---------------- 
[INPUT] l, kappa, [nprim/nctr], expnt,             c_1 c_2 ...
[INPUT] S
[INPUT] 0    0    [7    /1   ]  60700.928104      0.00054695944225
                                9102.6106854      0.0042297224557
                                2071.4166009      0.021747824159
                                586.02476821      0.085100053589
                                190.55395021      0.24799128459
                                67.63038426       0.46703640406
                                25.127306905      0.3643458755
[INPUT] 0    0    [3    /1   ]  112.5746301       0.02167004024
                                34.795554217      0.09360230176
                                6.5115556215      -0.26068001422
[INPUT] 0    0    [2    /1   ]  3.2399032261      1.2842089435
                                1.5477160881      0.66036416584
[INPUT] 0    0    [1    /1   ]  0.40541030112        1
[INPUT] 0    0    [1    /1   ]  0.14550651059        1
[INPUT] 1    0    [5    /1   ]  564.36716027      0.0024796796317
                                133.42624379      0.01967793025
                                42.468271189      0.089980008258
                                15.61652758       0.25705880575
                                6.1093988469      0.43515167292
[INPUT] 1    0    [1    /1   ]  2.4404160198         1
[INPUT] 1    0    [1    /1   ]  0.83882201296        1
[INPUT] 1    0    [1    /1   ]  0.312887469          1
[INPUT] 1    0    [1    /1   ]  0.10770109004        1
[INPUT] 2    0    [2    /1   ]  3.756              0.2
                                0.812                1
[INPUT] 2    0    [1    /1   ]  0.273                1
[INPUT] 3    0    [1    /1   ]  0.557                1
[INPUT] C
[INPUT] 0    0    [6    /1   ]  13575.349682      0.00022245814352
                                2035.233368       0.0017232738252
                                463.22562359      0.0089255715314
                                131.20019598      0.035727984502
                                42.853015891      0.11076259931
                                15.584185766      0.24295627626
[INPUT] 0    0    [2    /1   ]  6.2067138508      0.41440263448
                                2.5764896527      0.23744968655
[INPUT] 0    0    [1    /1   ]  0.57696339419        1
[INPUT] 0    0    [1    /1   ]  0.22972831358        1
[INPUT] 0    0    [1    /1   ]  0.095164440028       1
[INPUT] 1    0    [4    /1   ]  34.697232244      0.0053333657805
                                7.9582622826      0.035864109092
                                2.3780826883      0.14215873329
                                0.81433208183     0.34270471845
[INPUT] 1    0    [1    /1   ]  0.28887547253        1
[INPUT] 1    0    [1    /1   ]  0.10056823671        1
[INPUT] 2    0    [1    /1   ]  1.097                1
[INPUT] 2    0    [1    /1   ]  0.318                1
[INPUT] 3    0    [1    /1   ]  0.761                1
[INPUT] O
[INPUT] 0    0    [6    /1   ]  27032.382631      0.00021726302465
                                4052.3871392      0.0016838662199
                                922.3272271       0.0087395616265
                                261.24070989      0.035239968808
                                85.354641351      0.11153519115
                                31.035035245      0.25588953961
[INPUT] 0    0    [2    /1   ]  12.260860728      0.39768730901
                                4.9987076005      0.2462784943
[INPUT] 0    0    [1    /1   ]  1.1703108158         1
[INPUT] 0    0    [1    /1   ]  0.46474740994        1
[INPUT] 0    0    [1    /1   ]  0.18504536357        1
[INPUT] 1    0    [4    /1   ]  63.274954801      0.0060685103418
                                14.627049379      0.041912575824
                                4.4501223456      0.16153841088
                                1.5275799647      0.35706951311
[INPUT] 1    0    [1    /1   ]  0.52935117943        1
[INPUT] 1    0    [1    /1   ]  0.1747842127         1
[INPUT] 2    0    [1    /1   ]  2.314                1
[INPUT] 2    0    [1    /1   ]  0.645                1
[INPUT] 3    0    [1    /1   ]  1.428                1
[INPUT] H
[INPUT] 0    0    [3    /1   ]  34.061341         0.0060251978
                                5.1235746         0.045021094
                                1.1646626         0.20189726
[INPUT] 0    0    [1    /1   ]  0.32723041           1
[INPUT] 0    0    [1    /1   ]  0.10307241           1
[INPUT] 1    0    [1    /1   ]  0.8                  1
[INPUT] N
[INPUT] 0    0    [6    /1   ]  19730.800647      0.00021887984991
                                2957.8958745      0.0016960708803
                                673.22133595      0.0087954603538
                                190.68249494      0.035359382605
                                62.295441898      0.11095789217
                                22.654161182      0.24982972552
[INPUT] 0    0    [2    /1   ]  8.9791477428      0.40623896148
                                3.686300237       0.24338217176
[INPUT] 0    0    [1    /1   ]  0.84660076805        1
[INPUT] 0    0    [1    /1   ]  0.33647133771        1
[INPUT] 0    0    [1    /1   ]  0.13647653675        1
[INPUT] 1    0    [4    /1   ]  49.20038051       0.0055552416751
                                11.346790537      0.038052379723
                                3.4273972411      0.14953671029
                                1.1785525134      0.3494930523
[INPUT] 1    0    [1    /1   ]  0.41642204972        1
[INPUT] 1    0    [1    /1   ]  0.14260826011        1
[INPUT] 2    0    [1    /1   ]  1.654                1
[INPUT] 2    0    [1    /1   ]  0.469                1
[INPUT] 3    0    [1    /1   ]  1.093                1

nuclear repulsion = 1455.3643461788
number of shells = 234
number of NR pGTOs = 926
number of NR cGTOs = 618
basis = def2-tzvp
ecp = {}
CPU time:         2.94
RKS
Density fitting turned on
Molecule built
Calculating SCF Energy...


******** <class 'pyscf.df.df_jk.density_fit.<locals>.DFHF'> ********
method = DFHF-RKS-RHF
initial guess = chkfile
damping factor = 0
level_shift factor = 0
DIIS = <class 'pyscf.scf.diis.CDIIS'>
diis_start_cycle = 1
diis_space = 8
SCF conv_tol = 1e-10
SCF conv_tol_grad = None
SCF max_cycles = 50
direct_scf = True
direct_scf_tol = 1e-13
chkfile to save SCF result = 26_Firefly_luciferin_pbe0.chk
max_memory 50000 MB (current use 55 MB)
XC functionals = pbe0
small_rho_cutoff = 1e-07
radial grids: 
    Treutler-Ahlrichs [JCP 102, 346 (1995); DOI:10.1063/1.469408] (M4) radial grids
    
becke partition: Becke, JCP 88, 2547 (1988); DOI:10.1063/1.454033
pruning grids: <function nwchem_prune at 0x7ff2b4e81048>
grids dens level: 3
symmetrized grids: False
atomic radii adjust function: <function treutler_atomic_radii_adjust at 0x7ff2b664ef28>
Set gradient conv threshold to 1e-05
atom O rad-grids = 75, ang-grids = [ 50  50  50  50  50  50  50  50  50  50  50  50  50  50  50  50  50  50
  50  50  50  50  86  86  86  86  86  86  86  86  86 266 266 266 266 266
 266 266 302 302 302 302 302 302 302 302 302 302 302 302 302 302 302 302
 302 302 302 266 266 266 266 266 266 266 266 266 266 266 266 266 266 266
 266 266 266]
atom C rad-grids = 75, ang-grids = [ 50  50  50  50  50  50  50  50  50  50  50  50  50  50  50  50  50  50
  50  50  50  50  50  86  86  86  86  86  86  86  86  86  86 266 266 266
 266 266 266 266 302 302 302 302 302 302 302 302 302 302 302 302 302 302
 302 302 302 302 302 302 266 266 266 266 266 266 266 266 266 266 266 266
 266 266 266]
atom S rad-grids = 80, ang-grids = [ 50  50  50  50  50  50  50  50  50  50  50  50  50  50  50  50  50  50
  50  50  50  50  50  50  86  86  86  86  86  86  86  86  86  86  86  86
  86 350 350 350 350 350 350 350 350 350 434 434 434 434 434 434 434 434
 434 434 434 434 434 434 434 434 434 434 350 350 350 350 350 350 350 350
 350 350 350 350 350 350 350 350]
atom N rad-grids = 75, ang-grids = [ 50  50  50  50  50  50  50  50  50  50  50  50  50  50  50  50  50  50
  50  50  50  50  50  86  86  86  86  86  86  86  86  86 266 266 266 266
 266 266 266 302 302 302 302 302 302 302 302 302 302 302 302 302 302 302
 302 302 302 302 266 266 266 266 266 266 266 266 266 266 266 266 266 266
 266 266 266]
atom H rad-grids = 50, ang-grids = [ 50  50  50  50  50  50  50  50  50  50  50  50  50  50  86  86  86  86
 266 266 266 266 302 302 302 302 302 302 302 302 302 302 302 302 302 266
 266 266 266 266 266 266 266 266 266 266 266 266 266 266]
tot grids = 341752
Drop grids 53182
    CPU time for setting up grids     46.51 sec, wall time      3.20 sec
nelec by numeric integration = 143.9999905067866
    CPU time for vxc     79.69 sec, wall time      6.05 sec
******** <class 'pyscf.df.df.DF'> ********
auxbasis = None
max_memory = 50000
_cderi_to_save = /tmp/job.15971980.hpc/tmpupacrzva
Default auxbasis def2-tzvp-jkfit is used for S def2-tzvp
Default auxbasis def2-tzvp-jkfit is used for C def2-tzvp
Default auxbasis def2-tzvp-jkfit is used for O def2-tzvp
Default auxbasis def2-tzvp-jkfit is used for H def2-tzvp
Default auxbasis def2-tzvp-jkfit is used for N def2-tzvp
num shells = 524, num cGTOs = 1610
size of aux basis 1610
int3c2e [1/1], AO [0:234], nrow = 191271
    CPU time for cholesky_eri     76.52 sec, wall time     11.04 sec
    CPU time for df vj and vk    217.41 sec, wall time     22.31 sec
E1 = -5026.877193071229  Ecoul = 2169.2879106245955  Exc = -152.52421891230918
init E= -1554.74915518014
cond(S) = 1060012.8292660108
    CPU time for initialize scf    348.97 sec, wall time     32.15 sec
  HOMO = -0.239232788346137  LUMO = -0.0783447726800762
  mo_energy =
[-8.90679293e+01 -8.90473171e+01 -1.92682788e+01 -1.92567472e+01
 -1.92075412e+01 -1.44043160e+01 -1.43973370e+01 -1.03680235e+01
 -1.03192746e+01 -1.03137203e+01 -1.03126176e+01 -1.02949757e+01
 -1.02843617e+01 -1.02836864e+01 -1.02743090e+01 -1.02526404e+01
 -1.02501767e+01 -1.02484868e+01 -8.04540755e+00 -8.02539084e+00
 -5.98133409e+00 -5.97816252e+00 -5.97517177e+00 -5.96203128e+00
 -5.95876796e+00 -5.95358725e+00 -1.14608293e+00 -1.10915663e+00
 -1.05664295e+00 -1.00894737e+00 -9.83866779e-01 -8.85633495e-01
 -8.37816039e-01 -8.25434036e-01 -8.07957036e-01 -7.75101556e-01
 -7.61253876e-01 -6.94514619e-01 -6.65257420e-01 -6.50474358e-01
 -6.31458019e-01 -6.16614223e-01 -5.69469487e-01 -5.56145003e-01
 -5.43658253e-01 -5.24441048e-01 -5.13280926e-01 -5.12319903e-01
 -4.94041696e-01 -4.70613477e-01 -4.67764059e-01 -4.64073890e-01
 -4.60147887e-01 -4.45420270e-01 -4.41040388e-01 -4.32888907e-01
 -4.25294813e-01 -4.21061051e-01 -4.12641954e-01 -4.02865907e-01
 -3.77141968e-01 -3.76272772e-01 -3.59524126e-01 -3.50588537e-01
 -3.34366273e-01 -3.29398353e-01 -3.04050780e-01 -3.01433353e-01
 -2.95844983e-01 -2.62520493e-01 -2.59551666e-01 -2.39232788e-01
 -7.83447727e-02 -3.20595715e-02 -2.55238299e-02 -7.53502063e-04
  4.00111010e-03  2.51914487e-02  2.90601909e-02  3.73522111e-02
  4.48843217e-02  5.68208541e-02  6.73574793e-02  7.18642526e-02
  7.69331389e-02  9.35768824e-02  9.59003244e-02  1.00359797e-01
  1.09743380e-01  1.22578714e-01  1.33236974e-01  1.39319241e-01
  1.50327061e-01  1.61199366e-01  1.64489046e-01  1.67822580e-01
  1.78844621e-01  1.88054897e-01  1.95318900e-01  2.00050439e-01
  2.08975748e-01  2.13464045e-01  2.18232749e-01  2.27134553e-01
  2.31228015e-01  2.35130124e-01  2.40251333e-01  2.46887765e-01
  2.50635532e-01  2.61025958e-01  2.65901866e-01  2.73736077e-01
  2.80650951e-01  2.86728154e-01  2.90899774e-01  2.96407905e-01
  3.04133321e-01  3.13868507e-01  3.17712803e-01  3.21943232e-01
  3.24907262e-01  3.31583155e-01  3.32778741e-01  3.36986084e-01
  3.45465929e-01  3.51128117e-01  3.56631143e-01  3.61388816e-01
  3.64721103e-01  3.70291091e-01  3.77740531e-01  3.83212259e-01
  3.89763681e-01  3.91921016e-01  3.96316288e-01  4.02169322e-01
  4.08030764e-01  4.11541265e-01  4.16405613e-01  4.28976536e-01
  4.31975893e-01  4.32682747e-01  4.37182759e-01  4.42250711e-01
  4.48054980e-01  4.51692808e-01  4.58945443e-01  4.70877167e-01
  4.74927408e-01  4.83103447e-01  4.84338640e-01  4.87836512e-01
  5.06219278e-01  5.11916615e-01  5.18894630e-01  5.25793351e-01
  5.27484466e-01  5.31893112e-01  5.36234558e-01  5.41870053e-01
  5.45579246e-01  5.54631590e-01  5.61699326e-01  5.73635873e-01
  5.85137957e-01  5.96400184e-01  5.98558809e-01  6.09876368e-01
  6.13066927e-01  6.16940892e-01  6.31237767e-01  6.38454759e-01
  6.42145667e-01  6.51141579e-01  6.58491178e-01  6.65110255e-01
  6.67572195e-01  6.70832995e-01  6.79841708e-01  6.87959826e-01
  6.91848135e-01  7.03416998e-01  7.09637976e-01  7.23679441e-01
  7.29983026e-01  7.41340464e-01  7.57232788e-01  7.62824017e-01
  7.65730770e-01  7.69071222e-01  7.75348962e-01  7.88385987e-01
  7.91083579e-01  7.94955118e-01  8.00569230e-01  8.24260048e-01
  8.30091580e-01  8.33626734e-01  8.41747338e-01  8.58219263e-01
  8.71878034e-01  8.72897434e-01  8.81720563e-01  8.96072404e-01
  9.00979571e-01  9.06726470e-01  9.13363575e-01  9.21433002e-01
  9.44439303e-01  9.58069822e-01  9.61104178e-01  9.78255564e-01
  9.86236385e-01  9.92970388e-01  1.01064862e+00  1.02078974e+00
  1.03453685e+00  1.04291436e+00  1.05897639e+00  1.07478456e+00
  1.08022626e+00  1.08876063e+00  1.08995376e+00  1.09537249e+00
  1.12010165e+00  1.12494699e+00  1.13332899e+00  1.14665983e+00
  1.16408000e+00  1.17783856e+00  1.18344008e+00  1.21564120e+00
  1.21921395e+00  1.22697373e+00  1.23328855e+00  1.24139767e+00
  1.25206065e+00  1.27535776e+00  1.28832002e+00  1.29645356e+00
  1.30259271e+00  1.32114463e+00  1.32663237e+00  1.33416323e+00
  1.36268224e+00  1.36402860e+00  1.38554693e+00  1.41160628e+00
  1.42398527e+00  1.43199891e+00  1.44055393e+00  1.44359131e+00
  1.45416530e+00  1.46130607e+00  1.46814549e+00  1.47600640e+00
  1.48431344e+00  1.48738977e+00  1.49777852e+00  1.50086835e+00
  1.50385692e+00  1.50967725e+00  1.52008908e+00  1.53629253e+00
  1.54194064e+00  1.54909849e+00  1.55271481e+00  1.56546070e+00
  1.57395059e+00  1.57992531e+00  1.58442527e+00  1.58972857e+00
  1.60270479e+00  1.61081796e+00  1.61421412e+00  1.62150462e+00
  1.62508164e+00  1.63568747e+00  1.64356637e+00  1.64472560e+00
  1.65107052e+00  1.66007891e+00  1.66712942e+00  1.68113583e+00
  1.69089947e+00  1.70210994e+00  1.72179251e+00  1.72541789e+00
  1.73143807e+00  1.73723658e+00  1.75695617e+00  1.76565440e+00
  1.76973134e+00  1.77717872e+00  1.80252203e+00  1.80841722e+00
  1.81419539e+00  1.82368098e+00  1.82938054e+00  1.84062028e+00
  1.84428328e+00  1.85575177e+00  1.86034639e+00  1.86747321e+00
  1.87555949e+00  1.88769205e+00  1.89608158e+00  1.90884771e+00
  1.91256074e+00  1.92811831e+00  1.93825827e+00  1.94598459e+00
  1.95102669e+00  1.95452494e+00  1.96968457e+00  1.97721753e+00
  1.97816905e+00  1.99112239e+00  2.00613789e+00  2.02075806e+00
  2.02764444e+00  2.03848428e+00  2.04366893e+00  2.05668483e+00
  2.07138392e+00  2.07700017e+00  2.08375087e+00  2.09145706e+00
  2.10228717e+00  2.12861895e+00  2.13738035e+00  2.14554476e+00
  2.16182115e+00  2.16890535e+00  2.17168708e+00  2.18344958e+00
  2.20024331e+00  2.20374844e+00  2.22516035e+00  2.23798245e+00
  2.24194671e+00  2.26310405e+00  2.27055149e+00  2.27555602e+00
  2.29792202e+00  2.31556523e+00  2.31945666e+00  2.32370777e+00
  2.34823875e+00  2.37282068e+00  2.38647307e+00  2.38773278e+00
  2.41308166e+00  2.43379751e+00  2.44471914e+00  2.45085282e+00
  2.47397640e+00  2.47550473e+00  2.49618724e+00  2.51201069e+00
  2.53376963e+00  2.54761883e+00  2.55291182e+00  2.56636943e+00
  2.57911857e+00  2.59161898e+00  2.59759323e+00  2.61731967e+00
  2.62193211e+00  2.63591136e+00  2.64748110e+00  2.65409035e+00
  2.67372132e+00  2.67607052e+00  2.68502645e+00  2.70714362e+00
  2.71826616e+00  2.72252543e+00  2.73476890e+00  2.74184909e+00
  2.74649705e+00  2.76819638e+00  2.77208708e+00  2.77917665e+00
  2.78796266e+00  2.80675154e+00  2.81318535e+00  2.82285048e+00
  2.84117092e+00  2.84841946e+00  2.85345780e+00  2.87445726e+00
  2.88511354e+00  2.89490513e+00  2.90601403e+00  2.91298496e+00
  2.93206994e+00  2.93898347e+00  2.94292741e+00  2.94951199e+00
  2.95886076e+00  2.97290860e+00  2.98889559e+00  2.99715136e+00
  3.00186903e+00  3.00730308e+00  3.02513431e+00  3.04668933e+00
  3.05886716e+00  3.06506232e+00  3.08905033e+00  3.09565545e+00
  3.10065577e+00  3.10581695e+00  3.10945426e+00  3.12158760e+00
  3.13410256e+00  3.14494533e+00  3.15126102e+00  3.16486586e+00
  3.17272943e+00  3.18404985e+00  3.19012841e+00  3.19391429e+00
  3.20226632e+00  3.20861947e+00  3.21786293e+00  3.22998974e+00
  3.23322960e+00  3.24270884e+00  3.25759470e+00  3.26550360e+00
  3.27854438e+00  3.28133534e+00  3.29148430e+00  3.30089843e+00
  3.31108301e+00  3.32108141e+00  3.32714268e+00  3.32893162e+00
  3.34269450e+00  3.34531488e+00  3.35384782e+00  3.37242605e+00
  3.38714385e+00  3.39329664e+00  3.40326840e+00  3.41291692e+00
  3.42163444e+00  3.42947482e+00  3.44085738e+00  3.44236440e+00
  3.44637293e+00  3.45740415e+00  3.46636122e+00  3.47296400e+00
  3.47759676e+00  3.49121619e+00  3.49849563e+00  3.50002405e+00
  3.52735586e+00  3.53166600e+00  3.56019962e+00  3.58040428e+00
  3.58812434e+00  3.61786988e+00  3.63962710e+00  3.65345927e+00
  3.65499538e+00  3.67673777e+00  3.68029905e+00  3.68769117e+00
  3.69694319e+00  3.70505085e+00  3.72160863e+00  3.73301504e+00
  3.75055210e+00  3.77431020e+00  3.79829259e+00  3.81184087e+00
  3.83285828e+00  3.85291320e+00  3.86640658e+00  3.87539387e+00
  3.90430291e+00  3.91329077e+00  3.92384578e+00  3.94105959e+00
  3.94991227e+00  3.95573004e+00  3.96569963e+00  3.97138909e+00
  3.99721547e+00  4.00302294e+00  4.03026368e+00  4.04367738e+00
  4.04864302e+00  4.07462800e+00  4.09929294e+00  4.11360259e+00
  4.13023858e+00  4.14638842e+00  4.15909110e+00  4.17036653e+00
  4.18655593e+00  4.21949028e+00  4.22469339e+00  4.24913398e+00
  4.27824760e+00  4.30285978e+00  4.34953898e+00  4.36728917e+00
  4.38652599e+00  4.41646263e+00  4.43722961e+00  4.43967673e+00
  4.49004151e+00  4.54617930e+00  4.56239818e+00  4.58542420e+00
  4.63965702e+00  4.65437974e+00  4.75314514e+00  4.75341134e+00
  4.76041066e+00  4.77442923e+00  4.78374942e+00  4.82797401e+00
  4.87061058e+00  4.88189542e+00  4.88630030e+00  4.89299549e+00
  4.89961606e+00  4.94609338e+00  4.95714559e+00  4.97915418e+00
  5.01974175e+00  5.09902074e+00  5.11430505e+00  5.14143239e+00
  5.15240224e+00  5.15800892e+00  5.19209704e+00  5.20666709e+00
  5.23290130e+00  5.25392082e+00  5.26502007e+00  5.27397166e+00
  5.30830671e+00  5.33006475e+00  5.35763601e+00  5.37531238e+00
  5.40175064e+00  5.40789720e+00  5.44336142e+00  5.46523256e+00
  5.47479320e+00  5.48878207e+00  5.52937681e+00  5.57483856e+00
  5.58608926e+00  5.62638361e+00  5.67692665e+00  5.72378743e+00
  5.76957435e+00  5.77791705e+00  5.79511232e+00  5.82145326e+00
  5.88149259e+00  5.90292287e+00  5.94477094e+00  5.97185154e+00
  6.07293644e+00  6.19037750e+00  6.21582399e+00  6.29163193e+00
  6.33132506e+00  6.37653769e+00  6.38833240e+00  6.41879127e+00
  6.46968578e+00  6.49221005e+00  6.66774673e+00  6.70668511e+00
  6.71240793e+00  6.76789993e+00  6.80071931e+00  6.84114612e+00
  6.90689009e+00  6.99155950e+00  7.11021814e+00  7.11531506e+00
  7.27003763e+00  7.33076841e+00  8.91776653e+00  8.95182134e+00
  9.38491401e+00  9.44255924e+00  9.48376136e+00  9.54977233e+00
  1.96314976e+01  2.02689983e+01  2.22902975e+01  2.23388102e+01
  2.26051245e+01  2.26915735e+01  2.27283924e+01  2.27759005e+01
  2.29273238e+01  2.30296354e+01  2.31165029e+01  2.32486208e+01
  2.34242687e+01  3.25195837e+01  3.26396797e+01  4.38772638e+01
  4.39540764e+01  4.40177042e+01]
nelec by numeric integration = 143.99999050681447
    CPU time for vxc     80.54 sec, wall time      6.09 sec
    CPU time for df vj and vk    139.74 sec, wall time     10.93 sec
E1 = -5026.877206378361  Ecoul = 2169.287924595079  Exc = -152.52421957561126
cycle= 1 E= -1554.74915518009  delta_E= 4.96e-11  |g|= 1.81e-05  |ddm|= 2.15e-05
    CPU time for cycle= 1    224.81 sec, wall time     17.50 sec
  HOMO = -0.239233425090384  LUMO = -0.0783447501209523
  mo_energy =
[-8.90679273e+01 -8.90473139e+01 -1.92682685e+01 -1.92567467e+01
 -1.92075481e+01 -1.44043188e+01 -1.43973439e+01 -1.03680252e+01
 -1.03192690e+01 -1.03137160e+01 -1.03126167e+01 -1.02949787e+01
 -1.02843670e+01 -1.02836847e+01 -1.02743136e+01 -1.02526412e+01
 -1.02501753e+01 -1.02484887e+01 -8.04540589e+00 -8.02538790e+00
 -5.98133239e+00 -5.97816085e+00 -5.97517008e+00 -5.96202831e+00
 -5.95876501e+00 -5.95358429e+00 -1.14608164e+00 -1.10915622e+00
 -1.05664394e+00 -1.00894810e+00 -9.83868043e-01 -8.85634559e-01
 -8.37816303e-01 -8.25433697e-01 -8.07956403e-01 -7.75102223e-01
 -7.61253916e-01 -6.94513707e-01 -6.65256803e-01 -6.50474469e-01
 -6.31458290e-01 -6.16613857e-01 -5.69470001e-01 -5.56144946e-01
 -5.43659219e-01 -5.24441326e-01 -5.13280617e-01 -5.12320063e-01
 -4.94042482e-01 -4.70613734e-01 -4.67764284e-01 -4.64074063e-01
 -4.60148288e-01 -4.45420337e-01 -4.41039971e-01 -4.32888799e-01
 -4.25294647e-01 -4.21061262e-01 -4.12641198e-01 -4.02865656e-01
 -3.77141763e-01 -3.76271927e-01 -3.59524387e-01 -3.50588538e-01
 -3.34366267e-01 -3.29399204e-01 -3.04052378e-01 -3.01434911e-01
 -2.95846721e-01 -2.62520754e-01 -2.59550666e-01 -2.39233425e-01
 -7.83447501e-02 -3.20593807e-02 -2.55242802e-02 -7.54050811e-04
  4.00068271e-03  2.51916461e-02  2.90607238e-02  3.73530209e-02
  4.48848344e-02  5.68211542e-02  6.73585439e-02  7.18643761e-02
  7.69333574e-02  9.35767420e-02  9.59002528e-02  1.00359967e-01
  1.09743508e-01  1.22578622e-01  1.33236611e-01  1.39319042e-01
  1.50327213e-01  1.61199636e-01  1.64489049e-01  1.67822336e-01
  1.78844590e-01  1.88054980e-01  1.95318811e-01  2.00050467e-01
  2.08975394e-01  2.13464024e-01  2.18232799e-01  2.27135200e-01
  2.31227964e-01  2.35130523e-01  2.40251343e-01  2.46887486e-01
  2.50635334e-01  2.61026066e-01  2.65901879e-01  2.73736069e-01
  2.80650827e-01  2.86728399e-01  2.90899560e-01  2.96408018e-01
  3.04133145e-01  3.13868270e-01  3.17712454e-01  3.21943507e-01
  3.24907261e-01  3.31582903e-01  3.32778941e-01  3.36985783e-01
  3.45465895e-01  3.51127878e-01  3.56631124e-01  3.61388850e-01
  3.64720977e-01  3.70290923e-01  3.77740554e-01  3.83212217e-01
  3.89763578e-01  3.91921082e-01  3.96316425e-01  4.02169105e-01
  4.08030706e-01  4.11541161e-01  4.16405877e-01  4.28976421e-01
  4.31975805e-01  4.32682777e-01  4.37182678e-01  4.42250874e-01
  4.48054783e-01  4.51692447e-01  4.58945597e-01  4.70876905e-01
  4.74927251e-01  4.83103481e-01  4.84338766e-01  4.87836548e-01
  5.06218989e-01  5.11916607e-01  5.18894464e-01  5.25793302e-01
  5.27484765e-01  5.31892934e-01  5.36234231e-01  5.41870206e-01
  5.45579530e-01  5.54631347e-01  5.61698883e-01  5.73635827e-01
  5.85137961e-01  5.96399834e-01  5.98558938e-01  6.09876300e-01
  6.13066721e-01  6.16940944e-01  6.31237294e-01  6.38454352e-01
  6.42145683e-01  6.51141127e-01  6.58491406e-01  6.65109979e-01
  6.67571894e-01  6.70832208e-01  6.79841700e-01  6.87959987e-01
  6.91847974e-01  7.03416952e-01  7.09637956e-01  7.23679487e-01
  7.29983299e-01  7.41340434e-01  7.57232642e-01  7.62823897e-01
  7.65730574e-01  7.69070946e-01  7.75348794e-01  7.88385591e-01
  7.91083606e-01  7.94954876e-01  8.00569290e-01  8.24259915e-01
  8.30091175e-01  8.33626556e-01  8.41747249e-01  8.58219144e-01
  8.71878099e-01  8.72897481e-01  8.81720557e-01  8.96072071e-01
  9.00979954e-01  9.06726143e-01  9.13363162e-01  9.21433018e-01
  9.44439374e-01  9.58070069e-01  9.61104217e-01  9.78255527e-01
  9.86236905e-01  9.92970460e-01  1.01064867e+00  1.02078957e+00
  1.03453658e+00  1.04291426e+00  1.05897660e+00  1.07478438e+00
  1.08022581e+00  1.08876046e+00  1.08995323e+00  1.09537209e+00
  1.12010156e+00  1.12494711e+00  1.13332896e+00  1.14665970e+00
  1.16407972e+00  1.17783807e+00  1.18344012e+00  1.21564079e+00
  1.21921361e+00  1.22697348e+00  1.23328810e+00  1.24139698e+00
  1.25206072e+00  1.27535806e+00  1.28831955e+00  1.29645373e+00
  1.30259271e+00  1.32114455e+00  1.32663215e+00  1.33416343e+00
  1.36268190e+00  1.36402806e+00  1.38554677e+00  1.41160622e+00
  1.42398491e+00  1.43199883e+00  1.44055374e+00  1.44359158e+00
  1.45416534e+00  1.46130595e+00  1.46814519e+00  1.47600607e+00
  1.48431287e+00  1.48739002e+00  1.49777821e+00  1.50086790e+00
  1.50385651e+00  1.50967676e+00  1.52008940e+00  1.53629297e+00
  1.54194064e+00  1.54909881e+00  1.55271438e+00  1.56546064e+00
  1.57395189e+00  1.57992579e+00  1.58442533e+00  1.58972849e+00
  1.60270553e+00  1.61081897e+00  1.61421445e+00  1.62150501e+00
  1.62508198e+00  1.63568724e+00  1.64356679e+00  1.64472532e+00
  1.65107016e+00  1.66007888e+00  1.66712977e+00  1.68113589e+00
  1.69089911e+00  1.70210984e+00  1.72179341e+00  1.72541769e+00
  1.73143769e+00  1.73723650e+00  1.75695647e+00  1.76565416e+00
  1.76973147e+00  1.77717921e+00  1.80252274e+00  1.80841789e+00
  1.81419604e+00  1.82368129e+00  1.82938105e+00  1.84062085e+00
  1.84428425e+00  1.85575137e+00  1.86034703e+00  1.86747362e+00
  1.87555990e+00  1.88769215e+00  1.89608225e+00  1.90884798e+00
  1.91256106e+00  1.92811836e+00  1.93825884e+00  1.94598445e+00
  1.95102624e+00  1.95452539e+00  1.96968443e+00  1.97721779e+00
  1.97816917e+00  1.99112290e+00  2.00613802e+00  2.02075822e+00
  2.02764448e+00  2.03848542e+00  2.04366844e+00  2.05668549e+00
  2.07138361e+00  2.07700045e+00  2.08375060e+00  2.09145692e+00
  2.10228725e+00  2.12861852e+00  2.13737992e+00  2.14554519e+00
  2.16182100e+00  2.16890547e+00  2.17168760e+00  2.18344921e+00
  2.20024354e+00  2.20374788e+00  2.22515989e+00  2.23798242e+00
  2.24194577e+00  2.26310349e+00  2.27055106e+00  2.27555541e+00
  2.29792114e+00  2.31556487e+00  2.31945624e+00  2.32370682e+00
  2.34823885e+00  2.37282029e+00  2.38647247e+00  2.38773246e+00
  2.41308082e+00  2.43379748e+00  2.44471898e+00  2.45085240e+00
  2.47397626e+00  2.47550448e+00  2.49618717e+00  2.51201069e+00
  2.53376941e+00  2.54761855e+00  2.55291148e+00  2.56636858e+00
  2.57911816e+00  2.59161922e+00  2.59759317e+00  2.61731955e+00
  2.62193222e+00  2.63591110e+00  2.64748096e+00  2.65409014e+00
  2.67372208e+00  2.67607074e+00  2.68502719e+00  2.70714310e+00
  2.71826601e+00  2.72252522e+00  2.73476866e+00  2.74184923e+00
  2.74649685e+00  2.76819591e+00  2.77208654e+00  2.77917618e+00
  2.78796178e+00  2.80675183e+00  2.81318517e+00  2.82284959e+00
  2.84117051e+00  2.84841894e+00  2.85345751e+00  2.87445765e+00
  2.88511355e+00  2.89490503e+00  2.90601384e+00  2.91298481e+00
  2.93206981e+00  2.93898312e+00  2.94292744e+00  2.94951212e+00
  2.95886043e+00  2.97290763e+00  2.98889573e+00  2.99715203e+00
  3.00186826e+00  3.00730324e+00  3.02513412e+00  3.04668877e+00
  3.05886723e+00  3.06506199e+00  3.08904996e+00  3.09565485e+00
  3.10065499e+00  3.10581640e+00  3.10945360e+00  3.12158726e+00
  3.13410191e+00  3.14494512e+00  3.15126058e+00  3.16486615e+00
  3.17272977e+00  3.18404956e+00  3.19012746e+00  3.19391389e+00
  3.20226636e+00  3.20861947e+00  3.21786266e+00  3.22998929e+00
  3.23322946e+00  3.24270912e+00  3.25759426e+00  3.26550320e+00
  3.27854487e+00  3.28133578e+00  3.29148422e+00  3.30089865e+00
  3.31108336e+00  3.32108100e+00  3.32714228e+00  3.32893108e+00
  3.34269478e+00  3.34531445e+00  3.35384778e+00  3.37242561e+00
  3.38714367e+00  3.39329509e+00  3.40326847e+00  3.41291639e+00
  3.42163397e+00  3.42947417e+00  3.44085713e+00  3.44236444e+00
  3.44637231e+00  3.45740392e+00  3.46636067e+00  3.47296370e+00
  3.47759628e+00  3.49121611e+00  3.49849541e+00  3.50002365e+00
  3.52735492e+00  3.53166596e+00  3.56019927e+00  3.58040404e+00
  3.58812390e+00  3.61787048e+00  3.63962709e+00  3.65345953e+00
  3.65499523e+00  3.67673734e+00  3.68029924e+00  3.68769137e+00
  3.69694260e+00  3.70505042e+00  3.72160830e+00  3.73301446e+00
  3.75055177e+00  3.77430995e+00  3.79829256e+00  3.81184094e+00
  3.83285814e+00  3.85291336e+00  3.86640605e+00  3.87539307e+00
  3.90430208e+00  3.91329042e+00  3.92384551e+00  3.94105938e+00
  3.94991172e+00  3.95572978e+00  3.96569902e+00  3.97138876e+00
  3.99721496e+00  4.00302201e+00  4.03026298e+00  4.04367621e+00
  4.04864296e+00  4.07462728e+00  4.09929230e+00  4.11360159e+00
  4.13023836e+00  4.14638763e+00  4.15909016e+00  4.17036595e+00
  4.18655456e+00  4.21948984e+00  4.22469259e+00  4.24913243e+00
  4.27824720e+00  4.30285901e+00  4.34953836e+00  4.36728791e+00
  4.38652559e+00  4.41646241e+00  4.43722860e+00  4.43967553e+00
  4.49004196e+00  4.54617834e+00  4.56239810e+00  4.58542376e+00
  4.63965609e+00  4.65437879e+00  4.75314341e+00  4.75341027e+00
  4.76040963e+00  4.77442825e+00  4.78374862e+00  4.82797298e+00
  4.87060958e+00  4.88189399e+00  4.88629896e+00  4.89299418e+00
  4.89961454e+00  4.94609192e+00  4.95714346e+00  4.97915187e+00
  5.01974078e+00  5.09901909e+00  5.11430399e+00  5.14143032e+00
  5.15240058e+00  5.15800756e+00  5.19209468e+00  5.20666680e+00
  5.23290011e+00  5.25392083e+00  5.26501937e+00  5.27397067e+00
  5.30830557e+00  5.33006414e+00  5.35763537e+00  5.37531436e+00
  5.40175081e+00  5.40789767e+00  5.44336051e+00  5.46523285e+00
  5.47479257e+00  5.48878211e+00  5.52937651e+00  5.57483757e+00
  5.58608818e+00  5.62638231e+00  5.67692475e+00  5.72378675e+00
  5.76957306e+00  5.77791739e+00  5.79511157e+00  5.82145324e+00
  5.88149310e+00  5.90292350e+00  5.94476980e+00  5.97185161e+00
  6.07293545e+00  6.19037760e+00  6.21582439e+00  6.29163205e+00
  6.33132455e+00  6.37653793e+00  6.38833047e+00  6.41879162e+00
  6.46968659e+00  6.49220683e+00  6.66774793e+00  6.70668936e+00
  6.71240827e+00  6.76790176e+00  6.80071967e+00  6.84114289e+00
  6.90689286e+00  6.99155984e+00  7.11021691e+00  7.11531226e+00
  7.27003792e+00  7.33077120e+00  8.91776808e+00  8.95182401e+00
  9.38491660e+00  9.44256166e+00  9.48376324e+00  9.54977378e+00
  1.96315003e+01  2.02689997e+01  2.22902968e+01  2.23388116e+01
  2.26051231e+01  2.26915734e+01  2.27283910e+01  2.27758999e+01
  2.29273251e+01  2.30296361e+01  2.31165045e+01  2.32486193e+01
  2.34242661e+01  3.25195787e+01  3.26396756e+01  4.38772704e+01
  4.39540730e+01  4.40177046e+01]
nelec by numeric integration = 143.99999050676462
    CPU time for vxc     64.69 sec, wall time      4.84 sec
    CPU time for df vj and vk    140.96 sec, wall time     11.36 sec
E1 = -5026.877189424167  Ecoul = 2169.28790963653  Exc = -152.52422157099113
cycle= 2 E= -1554.74915517983  delta_E= 2.65e-10  |g|= 3.9e-05  |ddm|= 4.81e-05
    CPU time for cycle= 2    209.35 sec, wall time     16.59 sec
  HOMO = -0.23923298693881  LUMO = -0.078344739881115
  mo_energy =
[-8.90679288e+01 -8.90473162e+01 -1.92682745e+01 -1.92567472e+01
 -1.92075431e+01 -1.44043165e+01 -1.43973386e+01 -1.03680244e+01
 -1.03192729e+01 -1.03137192e+01 -1.03126172e+01 -1.02949769e+01
 -1.02843636e+01 -1.02836855e+01 -1.02743106e+01 -1.02526404e+01
 -1.02501761e+01 -1.02484875e+01 -8.04540719e+00 -8.02539005e+00
 -5.98133372e+00 -5.97816215e+00 -5.97517140e+00 -5.96203049e+00
 -5.95876717e+00 -5.95358646e+00 -1.14608229e+00 -1.10915651e+00
 -1.05664309e+00 -1.00894759e+00 -9.83867072e-01 -8.85633819e-01
 -8.37816200e-01 -8.25433857e-01 -8.07956861e-01 -7.75101767e-01
 -7.61253906e-01 -6.94514304e-01 -6.65257207e-01 -6.50474385e-01
 -6.31458044e-01 -6.16614045e-01 -5.69469645e-01 -5.56144973e-01
 -5.43658534e-01 -5.24441131e-01 -5.13280629e-01 -5.12319906e-01
 -4.94041881e-01 -4.70613508e-01 -4.67764072e-01 -4.64073888e-01
 -4.60148017e-01 -4.45420239e-01 -4.41040228e-01 -4.32888848e-01
 -4.25294723e-01 -4.21061059e-01 -4.12641705e-01 -4.02865814e-01
 -3.77141891e-01 -3.76272486e-01 -3.59524246e-01 -3.50588313e-01
 -3.34366237e-01 -3.29398667e-01 -3.04051203e-01 -3.01433767e-01
 -2.95845369e-01 -2.62520599e-01 -2.59551366e-01 -2.39232987e-01
 -7.83447399e-02 -3.20595454e-02 -2.55239912e-02 -7.53695117e-04
  4.00096645e-03  2.51915253e-02  2.90603594e-02  3.73524939e-02
  4.48844720e-02  5.68209861e-02  6.73577823e-02  7.18643244e-02
  7.69332191e-02  9.35768012e-02  9.59002703e-02  1.00359842e-01
  1.09743388e-01  1.22578702e-01  1.33236863e-01  1.39319173e-01
  1.50327112e-01  1.61199443e-01  1.64489049e-01  1.67822511e-01
  1.78844593e-01  1.88054911e-01  1.95318875e-01  2.00050449e-01
  2.08975635e-01  2.13464059e-01  2.18232763e-01  2.27134747e-01
  2.31227988e-01  2.35130239e-01  2.40251348e-01  2.46887655e-01
  2.50635482e-01  2.61025979e-01  2.65901873e-01  2.73736053e-01
  2.80650907e-01  2.86728231e-01  2.90899715e-01  2.96407933e-01
  3.04133291e-01  3.13868417e-01  3.17712685e-01  3.21943317e-01
  3.24907256e-01  3.31583098e-01  3.32778793e-01  3.36985988e-01
  3.45465917e-01  3.51128037e-01  3.56631116e-01  3.61388804e-01
  3.64721034e-01  3.70291059e-01  3.77740545e-01  3.83212260e-01
  3.89763659e-01  3.91921029e-01  3.96316343e-01  4.02169281e-01
  4.08030735e-01  4.11541239e-01  4.16405706e-01  4.28976524e-01
  4.31975890e-01  4.32682757e-01  4.37182740e-01  4.42250808e-01
  4.48054922e-01  4.51692703e-01  4.58945482e-01  4.70877086e-01
  4.74927380e-01  4.83103466e-01  4.84338700e-01  4.87836566e-01
  5.06219204e-01  5.11916649e-01  5.18894583e-01  5.25793352e-01
  5.27484595e-01  5.31893048e-01  5.36234486e-01  5.41870081e-01
  5.45579344e-01  5.54631516e-01  5.61699211e-01  5.73635835e-01
  5.85137961e-01  5.96400083e-01  5.98558823e-01  6.09876351e-01
  6.13066869e-01  6.16940901e-01  6.31237629e-01  6.38454662e-01
  6.42145683e-01  6.51141450e-01  6.58491245e-01  6.65110170e-01
  6.67572097e-01  6.70832764e-01  6.79841678e-01  6.87959877e-01
  6.91848061e-01  7.03416965e-01  7.09637987e-01  7.23679478e-01
  7.29983111e-01  7.41340450e-01  7.57232723e-01  7.62823952e-01
  7.65730704e-01  7.69071137e-01  7.75348907e-01  7.88385859e-01
  7.91083573e-01  7.94955033e-01  8.00569272e-01  8.24260032e-01
  8.30091448e-01  8.33626681e-01  8.41747319e-01  8.58219230e-01
  8.71878050e-01  8.72897446e-01  8.81720557e-01  8.96072305e-01
  9.00979677e-01  9.06726351e-01  9.13363445e-01  9.21432999e-01
  9.44439350e-01  9.58069885e-01  9.61104204e-01  9.78255581e-01
  9.86236531e-01  9.92970414e-01  1.01064864e+00  1.02078970e+00
  1.03453676e+00  1.04291433e+00  1.05897650e+00  1.07478453e+00
  1.08022613e+00  1.08876059e+00  1.08995359e+00  1.09537237e+00
  1.12010162e+00  1.12494703e+00  1.13332897e+00  1.14665980e+00
  1.16407991e+00  1.17783839e+00  1.18344007e+00  1.21564106e+00
  1.21921383e+00  1.22697365e+00  1.23328840e+00  1.24139743e+00
  1.25206067e+00  1.27535785e+00  1.28831989e+00  1.29645366e+00
  1.30259271e+00  1.32114465e+00  1.32663228e+00  1.33416335e+00
  1.36268213e+00  1.36402843e+00  1.38554691e+00  1.41160618e+00
  1.42398518e+00  1.43199888e+00  1.44055388e+00  1.44359138e+00
  1.45416530e+00  1.46130602e+00  1.46814536e+00  1.47600634e+00
  1.48431326e+00  1.48738983e+00  1.49777844e+00  1.50086822e+00
  1.50385680e+00  1.50967709e+00  1.52008917e+00  1.53629266e+00
  1.54194063e+00  1.54909863e+00  1.55271464e+00  1.56546072e+00
  1.57395095e+00  1.57992541e+00  1.58442530e+00  1.58972851e+00
  1.60270500e+00  1.61081824e+00  1.61421426e+00  1.62150472e+00
  1.62508180e+00  1.63568742e+00  1.64356646e+00  1.64472553e+00
  1.65107039e+00  1.66007890e+00  1.66712953e+00  1.68113586e+00
  1.69089933e+00  1.70210991e+00  1.72179287e+00  1.72541782e+00
  1.73143798e+00  1.73723656e+00  1.75695627e+00  1.76565431e+00
  1.76973136e+00  1.77717885e+00  1.80252221e+00  1.80841738e+00
  1.81419556e+00  1.82368102e+00  1.82938067e+00  1.84062042e+00
  1.84428359e+00  1.85575167e+00  1.86034655e+00  1.86747335e+00
  1.87555963e+00  1.88769210e+00  1.89608181e+00  1.90884775e+00
  1.91256082e+00  1.92811833e+00  1.93825847e+00  1.94598455e+00
  1.95102659e+00  1.95452514e+00  1.96968451e+00  1.97721760e+00
  1.97816906e+00  1.99112253e+00  2.00613792e+00  2.02075814e+00
  2.02764446e+00  2.03848461e+00  2.04366878e+00  2.05668503e+00
  2.07138383e+00  2.07700028e+00  2.08375076e+00  2.09145704e+00
  2.10228719e+00  2.12861878e+00  2.13738023e+00  2.14554493e+00
  2.16182106e+00  2.16890543e+00  2.17168731e+00  2.18344948e+00
  2.20024342e+00  2.20374827e+00  2.22516020e+00  2.23798245e+00
  2.24194648e+00  2.26310390e+00  2.27055142e+00  2.27555588e+00
  2.29792178e+00  2.31556513e+00  2.31945656e+00  2.32370750e+00
  2.34823881e+00  2.37282058e+00  2.38647291e+00  2.38773272e+00
  2.41308145e+00  2.43379751e+00  2.44471909e+00  2.45085276e+00
  2.47397637e+00  2.47550469e+00  2.49618725e+00  2.51201073e+00
  2.53376957e+00  2.54761876e+00  2.55291172e+00  2.56636915e+00
  2.57911847e+00  2.59161912e+00  2.59759325e+00  2.61731963e+00
  2.62193219e+00  2.63591128e+00  2.64748107e+00  2.65409030e+00
  2.67372162e+00  2.67607067e+00  2.68502681e+00  2.70714347e+00
  2.71826613e+00  2.72252534e+00  2.73476888e+00  2.74184923e+00
  2.74649703e+00  2.76819628e+00  2.77208692e+00  2.77917650e+00
  2.78796237e+00  2.80675164e+00  2.81318529e+00  2.82285020e+00
  2.84117082e+00  2.84841930e+00  2.85345774e+00  2.87445748e+00
  2.88511357e+00  2.89490515e+00  2.90601396e+00  2.91298494e+00
  2.93206991e+00  2.93898334e+00  2.94292739e+00  2.94951202e+00
  2.95886065e+00  2.97290831e+00  2.98889566e+00  2.99715153e+00
  3.00186877e+00  3.00730312e+00  3.02513425e+00  3.04668916e+00
  3.05886715e+00  3.06506223e+00  3.08905021e+00  3.09565525e+00
  3.10065553e+00  3.10581678e+00  3.10945402e+00  3.12158750e+00
  3.13410233e+00  3.14494525e+00  3.15126090e+00  3.16486593e+00
  3.17272952e+00  3.18404976e+00  3.19012811e+00  3.19391417e+00
  3.20226636e+00  3.20861950e+00  3.21786286e+00  3.22998963e+00
  3.23322960e+00  3.24270901e+00  3.25759459e+00  3.26550352e+00
  3.27854455e+00  3.28133549e+00  3.29148428e+00  3.30089854e+00
  3.31108317e+00  3.32108129e+00  3.32714256e+00  3.32893146e+00
  3.34269460e+00  3.34531473e+00  3.35384782e+00  3.37242592e+00
  3.38714379e+00  3.39329611e+00  3.40326842e+00  3.41291675e+00
  3.42163430e+00  3.42947461e+00  3.44085730e+00  3.44236444e+00
  3.44637276e+00  3.45740408e+00  3.46636104e+00  3.47296390e+00
  3.47759661e+00  3.49121618e+00  3.49849555e+00  3.50002392e+00
  3.52735559e+00  3.53166602e+00  3.56019951e+00  3.58040420e+00
  3.58812420e+00  3.61787004e+00  3.63962709e+00  3.65345933e+00
  3.65499536e+00  3.67673763e+00  3.68029909e+00  3.68769126e+00
  3.69694301e+00  3.70505073e+00  3.72160856e+00  3.73301487e+00
  3.75055200e+00  3.77431013e+00  3.79829261e+00  3.81184099e+00
  3.83285822e+00  3.85291328e+00  3.86640643e+00  3.87539362e+00
  3.90430268e+00  3.91329069e+00  3.92384576e+00  3.94105956e+00
  3.94991212e+00  3.95572999e+00  3.96569947e+00  3.97138900e+00
  3.99721532e+00  4.00302266e+00  4.03026350e+00  4.04367707e+00
  4.04864302e+00  4.07462777e+00  4.09929274e+00  4.11360226e+00
  4.13023855e+00  4.14638819e+00  4.15909081e+00  4.17036638e+00
  4.18655549e+00  4.21949018e+00  4.22469315e+00  4.24913349e+00
  4.27824750e+00  4.30285957e+00  4.34953881e+00  4.36728884e+00
  4.38652589e+00  4.41646262e+00  4.43722929e+00  4.43967634e+00
  4.49004176e+00  4.54617902e+00  4.56239822e+00  4.58542407e+00
  4.63965683e+00  4.65437945e+00  4.75314466e+00  4.75341105e+00
  4.76041040e+00  4.77442900e+00  4.78374921e+00  4.82797376e+00
  4.87061031e+00  4.88189503e+00  4.88629994e+00  4.89299518e+00
  4.89961566e+00  4.94609293e+00  4.95714508e+00  4.97915364e+00
  5.01974148e+00  5.09902036e+00  5.11430480e+00  5.14143192e+00
  5.15240189e+00  5.15800869e+00  5.19209644e+00  5.20666719e+00
  5.23290103e+00  5.25392083e+00  5.26501991e+00  5.27397143e+00
  5.30830647e+00  5.33006466e+00  5.35763595e+00  5.37531332e+00
  5.40175087e+00  5.40789740e+00  5.44336130e+00  5.46523263e+00
  5.47479304e+00  5.48878229e+00  5.52937673e+00  5.57483839e+00
  5.58608895e+00  5.62638335e+00  5.67692621e+00  5.72378743e+00
  5.76957409e+00  5.77791714e+00  5.79511217e+00  5.82145348e+00
  5.88149295e+00  5.90292329e+00  5.94477067e+00  5.97185157e+00
  6.07293618e+00  6.19037777e+00  6.21582436e+00  6.29163197e+00
  6.33132520e+00  6.37653774e+00  6.38833191e+00  6.41879133e+00
  6.46968639e+00  6.49220922e+00  6.66774746e+00  6.70668694e+00
  6.71240800e+00  6.76790083e+00  6.80071939e+00  6.84114526e+00
  6.90689139e+00  6.99155957e+00  7.11021798e+00  7.11531434e+00
  7.27003769e+00  7.33076964e+00  8.91776686e+00  8.95182206e+00
  9.38491470e+00  9.44255988e+00  9.48376180e+00  9.54977263e+00
  1.96314983e+01  2.02689986e+01  2.22902974e+01  2.23388110e+01
  2.26051238e+01  2.26915735e+01  2.27283918e+01  2.27759005e+01
  2.29273241e+01  2.30296356e+01  2.31165033e+01  2.32486201e+01
  2.34242678e+01  3.25195826e+01  3.26396788e+01  4.38772667e+01
  4.39540758e+01  4.40177042e+01]
nelec by numeric integration = 143.99999050679781
    CPU time for vxc     68.37 sec, wall time      4.99 sec
    CPU time for df vj and vk    133.62 sec, wall time     10.38 sec
E1 = -5026.877199899809  Ecoul = 2169.287917201122  Exc = -152.524218660273
cycle= 3 E= -1554.74915518016  delta_E= -3.32e-10  |g|= 2.71e-06  |ddm|= 3.43e-05
    CPU time for cycle= 3    206.47 sec, wall time     15.87 sec
  HOMO = -0.23923298513983  LUMO = -0.0783447477342381
  mo_energy =
[-8.90679286e+01 -8.90473161e+01 -1.92682752e+01 -1.92567471e+01
 -1.92075432e+01 -1.44043167e+01 -1.43973390e+01 -1.03680242e+01
 -1.03192728e+01 -1.03137190e+01 -1.03126173e+01 -1.02949768e+01
 -1.02843634e+01 -1.02836857e+01 -1.02743105e+01 -1.02526406e+01
 -1.02501762e+01 -1.02484874e+01 -8.04540703e+00 -8.02538993e+00
 -5.98133355e+00 -5.97816199e+00 -5.97517123e+00 -5.96203037e+00
 -5.95876705e+00 -5.95358634e+00 -1.14608243e+00 -1.10915652e+00
 -1.05664318e+00 -1.00894759e+00 -9.83867135e-01 -8.85633818e-01
 -8.37816130e-01 -8.25433893e-01 -8.07956834e-01 -7.75101759e-01
 -7.61253891e-01 -6.94514315e-01 -6.65257208e-01 -6.50474388e-01
 -6.31458078e-01 -6.16614076e-01 -5.69469647e-01 -5.56144976e-01
 -5.43658551e-01 -5.24441128e-01 -5.13280744e-01 -5.12319930e-01
 -4.94041916e-01 -4.70613542e-01 -4.67764102e-01 -4.64073915e-01
 -4.60148006e-01 -4.45420255e-01 -4.41040243e-01 -4.32888862e-01
 -4.25294737e-01 -4.21061089e-01 -4.12641695e-01 -4.02865824e-01
 -3.77141887e-01 -3.76272488e-01 -3.59524206e-01 -3.50588439e-01
 -3.34366256e-01 -3.29398620e-01 -3.04051245e-01 -3.01433807e-01
 -2.95845472e-01 -2.62520570e-01 -2.59551341e-01 -2.39232985e-01
 -7.83447477e-02 -3.20595079e-02 -2.55239673e-02 -7.53671817e-04
  4.00097904e-03  2.51915113e-02  2.90603708e-02  3.73524861e-02
  4.48844908e-02  5.68209674e-02  6.73578203e-02  7.18642986e-02
  7.69332152e-02  9.35768329e-02  9.59003002e-02  1.00359857e-01
  1.09743424e-01  1.22578688e-01  1.33236864e-01  1.39319180e-01
  1.50327117e-01  1.61199453e-01  1.64489054e-01  1.67822507e-01
  1.78844611e-01  1.88054926e-01  1.95318876e-01  2.00050452e-01
  2.08975638e-01  2.13464049e-01  2.18232769e-01  2.27134764e-01
  2.31227998e-01  2.35130251e-01  2.40251342e-01  2.46887677e-01
  2.50635474e-01  2.61025992e-01  2.65901875e-01  2.73736074e-01
  2.80650915e-01  2.86728235e-01  2.90899712e-01  2.96407942e-01
  3.04133276e-01  3.13868432e-01  3.17712692e-01  3.21943324e-01
  3.24907267e-01  3.31583085e-01  3.32778808e-01  3.36985992e-01
  3.45465923e-01  3.51128045e-01  3.56631136e-01  3.61388824e-01
  3.64721061e-01  3.70291045e-01  3.77740544e-01  3.83212254e-01
  3.89763657e-01  3.91921041e-01  3.96316341e-01  4.02169264e-01
  4.08030747e-01  4.11541238e-01  4.16405707e-01  4.28976511e-01
  4.31975878e-01  4.32682761e-01  4.37182741e-01  4.42250783e-01
  4.48054919e-01  4.51692700e-01  4.58945495e-01  4.70877087e-01
  4.74927370e-01  4.83103467e-01  4.84338688e-01  4.87836542e-01
  5.06219198e-01  5.11916631e-01  5.18894585e-01  5.25793345e-01
  5.27484579e-01  5.31893059e-01  5.36234467e-01  5.41870098e-01
  5.45579345e-01  5.54631519e-01  5.61699196e-01  5.73635859e-01
  5.85137966e-01  5.96400082e-01  5.98558852e-01  6.09876356e-01
  6.13066870e-01  6.16940912e-01  6.31237625e-01  6.38454643e-01
  6.42145684e-01  6.51141445e-01  6.58491254e-01  6.65110176e-01
  6.67572105e-01  6.70832757e-01  6.79841708e-01  6.87959883e-01
  6.91848085e-01  7.03416983e-01  7.09637980e-01  7.23679468e-01
  7.29983121e-01  7.41340459e-01  7.57232743e-01  7.62823978e-01
  7.65730715e-01  7.69071143e-01  7.75348915e-01  7.88385867e-01
  7.91083590e-01  7.94955041e-01  8.00569262e-01  8.24260021e-01
  8.30091459e-01  8.33626680e-01  8.41747318e-01  8.58219228e-01
  8.71878058e-01  8.72897454e-01  8.81720566e-01  8.96072303e-01
  9.00979696e-01  9.06726368e-01  9.13363449e-01  9.21433010e-01
  9.44439342e-01  9.58069903e-01  9.61104201e-01  9.78255568e-01
  9.86236557e-01  9.92970417e-01  1.01064865e+00  1.02078970e+00
  1.03453677e+00  1.04291434e+00  1.05897648e+00  1.07478452e+00
  1.08022613e+00  1.08876059e+00  1.08995360e+00  1.09537237e+00
  1.12010162e+00  1.12494703e+00  1.13332898e+00  1.14665979e+00
  1.16407992e+00  1.17783840e+00  1.18344010e+00  1.21564107e+00
  1.21921385e+00  1.22697365e+00  1.23328841e+00  1.24139745e+00
  1.25206068e+00  1.27535786e+00  1.28831988e+00  1.29645363e+00
  1.30259271e+00  1.32114463e+00  1.32663230e+00  1.33416332e+00
  1.36268213e+00  1.36402843e+00  1.38554689e+00  1.41160625e+00
  1.42398517e+00  1.43199889e+00  1.44055388e+00  1.44359139e+00
  1.45416532e+00  1.46130604e+00  1.46814538e+00  1.47600631e+00
  1.48431327e+00  1.48738985e+00  1.49777843e+00  1.50086821e+00
  1.50385680e+00  1.50967710e+00  1.52008919e+00  1.53629268e+00
  1.54194065e+00  1.54909862e+00  1.55271468e+00  1.56546070e+00
  1.57395100e+00  1.57992546e+00  1.58442530e+00  1.58972854e+00
  1.60270503e+00  1.61081828e+00  1.61421424e+00  1.62150475e+00
  1.62508178e+00  1.63568741e+00  1.64356650e+00  1.64472553e+00
  1.65107041e+00  1.66007891e+00  1.66712954e+00  1.68113586e+00
  1.69089936e+00  1.70210992e+00  1.72179283e+00  1.72541783e+00
  1.73143796e+00  1.73723656e+00  1.75695627e+00  1.76565432e+00
  1.76973138e+00  1.77717888e+00  1.80252225e+00  1.80841744e+00
  1.81419559e+00  1.82368108e+00  1.82938070e+00  1.84062047e+00
  1.84428360e+00  1.85575166e+00  1.86034660e+00  1.86747335e+00
  1.87555963e+00  1.88769210e+00  1.89608181e+00  1.90884779e+00
  1.91256084e+00  1.92811833e+00  1.93825847e+00  1.94598456e+00
  1.95102657e+00  1.95452511e+00  1.96968453e+00  1.97721762e+00
  1.97816909e+00  1.99112256e+00  2.00613794e+00  2.02075813e+00
  2.02764446e+00  2.03848464e+00  2.04366878e+00  2.05668505e+00
  2.07138383e+00  2.07700028e+00  2.08375078e+00  2.09145703e+00
  2.10228720e+00  2.12861881e+00  2.13738023e+00  2.14554492e+00
  2.16182110e+00  2.16890541e+00  2.17168728e+00  2.18344947e+00
  2.20024340e+00  2.20374827e+00  2.22516021e+00  2.23798245e+00
  2.24194644e+00  2.26310388e+00  2.27055138e+00  2.27555585e+00
  2.29792176e+00  2.31556512e+00  2.31945654e+00  2.32370749e+00
  2.34823879e+00  2.37282057e+00  2.38647290e+00  2.38773270e+00
  2.41308142e+00  2.43379751e+00  2.44471909e+00  2.45085272e+00
  2.47397637e+00  2.47550467e+00  2.49618723e+00  2.51201071e+00
  2.53376957e+00  2.54761875e+00  2.55291172e+00  2.56636917e+00
  2.57911845e+00  2.59161908e+00  2.59759323e+00  2.61731964e+00
  2.62193217e+00  2.63591129e+00  2.64748106e+00  2.65409029e+00
  2.67372159e+00  2.67607062e+00  2.68502673e+00  2.70714347e+00
  2.71826612e+00  2.72252536e+00  2.73476884e+00  2.74184917e+00
  2.74649700e+00  2.76819625e+00  2.77208692e+00  2.77917651e+00
  2.78796238e+00  2.80675165e+00  2.81318530e+00  2.82285021e+00
  2.84117080e+00  2.84841930e+00  2.85345772e+00  2.87445742e+00
  2.88511355e+00  2.89490512e+00  2.90601397e+00  2.91298493e+00
  2.93206990e+00  2.93898336e+00  2.94292742e+00  2.94951203e+00
  2.95886066e+00  2.97290830e+00  2.98889565e+00  2.99715156e+00
  3.00186879e+00  3.00730313e+00  3.02513426e+00  3.04668917e+00
  3.05886718e+00  3.06506223e+00  3.08905022e+00  3.09565526e+00
  3.10065553e+00  3.10581678e+00  3.10945405e+00  3.12158750e+00
  3.13410235e+00  3.14494527e+00  3.15126089e+00  3.16486595e+00
  3.17272954e+00  3.18404976e+00  3.19012812e+00  3.19391417e+00
  3.20226635e+00  3.20861949e+00  3.21786285e+00  3.22998961e+00
  3.23322957e+00  3.24270896e+00  3.25759458e+00  3.26550350e+00
  3.27854455e+00  3.28133549e+00  3.29148428e+00  3.30089852e+00
  3.31108315e+00  3.32108129e+00  3.32714256e+00  3.32893145e+00
  3.34269460e+00  3.34531475e+00  3.35384782e+00  3.37242592e+00
  3.38714380e+00  3.39329615e+00  3.40326843e+00  3.41291676e+00
  3.42163430e+00  3.42947462e+00  3.44085731e+00  3.44236443e+00
  3.44637274e+00  3.45740409e+00  3.46636105e+00  3.47296391e+00
  3.47759661e+00  3.49121617e+00  3.49849556e+00  3.50002392e+00
  3.52735557e+00  3.53166600e+00  3.56019952e+00  3.58040420e+00
  3.58812420e+00  3.61787008e+00  3.63962710e+00  3.65345936e+00
  3.65499535e+00  3.67673764e+00  3.68029911e+00  3.68769125e+00
  3.69694301e+00  3.70505072e+00  3.72160855e+00  3.73301487e+00
  3.75055201e+00  3.77431013e+00  3.79829260e+00  3.81184093e+00
  3.83285823e+00  3.85291327e+00  3.86640642e+00  3.87539363e+00
  3.90430267e+00  3.91329067e+00  3.92384573e+00  3.94105954e+00
  3.94991210e+00  3.95572997e+00  3.96569945e+00  3.97138899e+00
  3.99721531e+00  4.00302266e+00  4.03026347e+00  4.04367703e+00
  4.04864301e+00  4.07462778e+00  4.09929275e+00  4.11360228e+00
  4.13023853e+00  4.14638818e+00  4.15909081e+00  4.17036636e+00
  4.18655550e+00  4.21949015e+00  4.22469315e+00  4.24913350e+00
  4.27824749e+00  4.30285956e+00  4.34953880e+00  4.36728880e+00
  4.38652587e+00  4.41646259e+00  4.43722930e+00  4.43967636e+00
  4.49004169e+00  4.54617900e+00  4.56239818e+00  4.58542406e+00
  4.63965676e+00  4.65437945e+00  4.75314461e+00  4.75341102e+00
  4.76041036e+00  4.77442895e+00  4.78374919e+00  4.82797371e+00
  4.87061029e+00  4.88189499e+00  4.88629990e+00  4.89299511e+00
  4.89961561e+00  4.94609293e+00  4.95714498e+00  4.97915352e+00
  5.01974145e+00  5.09902027e+00  5.11430474e+00  5.14143180e+00
  5.15240178e+00  5.15800857e+00  5.19209636e+00  5.20666708e+00
  5.23290096e+00  5.25392082e+00  5.26501987e+00  5.27397138e+00
  5.30830640e+00  5.33006460e+00  5.35763586e+00  5.37531313e+00
  5.40175077e+00  5.40789737e+00  5.44336119e+00  5.46523264e+00
  5.47479301e+00  5.48878217e+00  5.52937672e+00  5.57483831e+00
  5.58608894e+00  5.62638326e+00  5.67692611e+00  5.72378730e+00
  5.76957399e+00  5.77791714e+00  5.79511211e+00  5.82145334e+00
  5.88149283e+00  5.90292316e+00  5.94477061e+00  5.97185156e+00
  6.07293615e+00  6.19037764e+00  6.21582422e+00  6.29163196e+00
  6.33132503e+00  6.37653775e+00  6.38833185e+00  6.41879135e+00
  6.46968618e+00  6.49220914e+00  6.66774726e+00  6.70668664e+00
  6.71240801e+00  6.76790064e+00  6.80071940e+00  6.84114519e+00
  6.90689114e+00  6.99155958e+00  7.11021786e+00  7.11531427e+00
  7.27003770e+00  7.33076942e+00  8.91776702e+00  8.95182217e+00
  9.38491481e+00  9.44255999e+00  9.48376194e+00  9.54977279e+00
  1.96314984e+01  2.02689988e+01  2.22902973e+01  2.23388108e+01
  2.26051239e+01  2.26915735e+01  2.27283919e+01  2.27759004e+01
  2.29273242e+01  2.30296356e+01  2.31165033e+01  2.32486203e+01
  2.34242678e+01  3.25195823e+01  3.26396785e+01  4.38772662e+01
  4.39540755e+01  4.40177042e+01]
nelec by numeric integration = 143.9999905067965
    CPU time for vxc     66.74 sec, wall time      4.85 sec
    CPU time for df vj and vk    135.85 sec, wall time     10.73 sec
E1 = -5026.877198555958  Ecoul = 2169.2879167289393  Exc = -152.5242195319394
cycle= 4 E= -1554.74915518016  delta_E= 1.82e-12  |g|= 2.86e-07  |ddm|= 2.54e-06
    CPU time for cycle= 4    206.74 sec, wall time     16.08 sec
  HOMO = -0.239232986471814  LUMO = -0.078344752536218
  mo_energy =
[-8.90679287e+01 -8.90473161e+01 -1.92682751e+01 -1.92567471e+01
 -1.92075434e+01 -1.44043167e+01 -1.43973389e+01 -1.03680241e+01
 -1.03192729e+01 -1.03137191e+01 -1.03126172e+01 -1.02949767e+01
 -1.02843635e+01 -1.02836857e+01 -1.02743105e+01 -1.02526405e+01
 -1.02501762e+01 -1.02484874e+01 -8.04540712e+00 -8.02538997e+00
 -5.98133365e+00 -5.97816208e+00 -5.97517133e+00 -5.96203041e+00
 -5.95876709e+00 -5.95358638e+00 -1.14608243e+00 -1.10915649e+00
 -1.05664321e+00 -1.00894759e+00 -9.83867133e-01 -8.85633828e-01
 -8.37816161e-01 -8.25433898e-01 -8.07956844e-01 -7.75101768e-01
 -7.61253890e-01 -6.94514314e-01 -6.65257217e-01 -6.50474387e-01
 -6.31458078e-01 -6.16614081e-01 -5.69469642e-01 -5.56144977e-01
 -5.43658543e-01 -5.24441132e-01 -5.13280756e-01 -5.12319932e-01
 -4.94041920e-01 -4.70613534e-01 -4.67764109e-01 -4.64073923e-01
 -4.60148016e-01 -4.45420280e-01 -4.41040242e-01 -4.32888858e-01
 -4.25294747e-01 -4.21061094e-01 -4.12641712e-01 -4.02865815e-01
 -3.77141901e-01 -3.76272495e-01 -3.59524229e-01 -3.50588462e-01
 -3.34366253e-01 -3.29398647e-01 -3.04051260e-01 -3.01433821e-01
 -2.95845467e-01 -2.62520589e-01 -2.59551357e-01 -2.39232986e-01
 -7.83447525e-02 -3.20595286e-02 -2.55239843e-02 -7.53683496e-04
  4.00097146e-03  2.51915225e-02  2.90603587e-02  3.73524778e-02
  4.48844796e-02  5.68209655e-02  6.73577996e-02  7.18643095e-02
  7.69332135e-02  9.35768181e-02  9.59002860e-02  1.00359845e-01
  1.09743401e-01  1.22578694e-01  1.33236861e-01  1.39319177e-01
  1.50327112e-01  1.61199449e-01  1.64489048e-01  1.67822507e-01
  1.78844602e-01  1.88054917e-01  1.95318874e-01  2.00050452e-01
  2.08975636e-01  2.13464049e-01  2.18232765e-01  2.27134752e-01
  2.31227996e-01  2.35130247e-01  2.40251343e-01  2.46887664e-01
  2.50635478e-01  2.61025988e-01  2.65901874e-01  2.73736065e-01
  2.80650910e-01  2.86728233e-01  2.90899712e-01  2.96407939e-01
  3.04133279e-01  3.13868427e-01  3.17712691e-01  3.21943319e-01
  3.24907259e-01  3.31583087e-01  3.32778799e-01  3.36985988e-01
  3.45465917e-01  3.51128041e-01  3.56631128e-01  3.61388819e-01
  3.64721050e-01  3.70291049e-01  3.77740542e-01  3.83212253e-01
  3.89763654e-01  3.91921034e-01  3.96316337e-01  4.02169269e-01
  4.08030742e-01  4.11541235e-01  4.16405700e-01  4.28976510e-01
  4.31975875e-01  4.32682757e-01  4.37182735e-01  4.42250782e-01
  4.48054922e-01  4.51692697e-01  4.58945487e-01  4.70877085e-01
  4.74927368e-01  4.83103461e-01  4.84338690e-01  4.87836540e-01
  5.06219193e-01  5.11916627e-01  5.18894579e-01  5.25793343e-01
  5.27484574e-01  5.31893052e-01  5.36234469e-01  5.41870094e-01
  5.45579339e-01  5.54631514e-01  5.61699197e-01  5.73635847e-01
  5.85137959e-01  5.96400078e-01  5.98558836e-01  6.09876346e-01
  6.13066864e-01  6.16940905e-01  6.31237623e-01  6.38454642e-01
  6.42145676e-01  6.51141443e-01  6.58491249e-01  6.65110168e-01
  6.67572097e-01  6.70832753e-01  6.79841690e-01  6.87959878e-01
  6.91848071e-01  7.03416975e-01  7.09637976e-01  7.23679467e-01
  7.29983111e-01  7.41340452e-01  7.57232733e-01  7.62823966e-01
  7.65730703e-01  7.69071135e-01  7.75348908e-01  7.88385860e-01
  7.91083581e-01  7.94955038e-01  8.00569259e-01  8.24260017e-01
  8.30091448e-01  8.33626681e-01  8.41747315e-01  8.58219229e-01
  8.71878054e-01  8.72897448e-01  8.81720559e-01  8.96072303e-01
  9.00979686e-01  9.06726359e-01  9.13363445e-01  9.21433004e-01
  9.44439334e-01  9.58069894e-01  9.61104198e-01  9.78255564e-01
  9.86236539e-01  9.92970414e-01  1.01064864e+00  1.02078970e+00
  1.03453676e+00  1.04291433e+00  1.05897648e+00  1.07478452e+00
  1.08022613e+00  1.08876058e+00  1.08995359e+00  1.09537237e+00
  1.12010162e+00  1.12494703e+00  1.13332898e+00  1.14665979e+00
  1.16407992e+00  1.17783840e+00  1.18344008e+00  1.21564107e+00
  1.21921384e+00  1.22697365e+00  1.23328840e+00  1.24139745e+00
  1.25206067e+00  1.27535785e+00  1.28831988e+00  1.29645363e+00
  1.30259271e+00  1.32114463e+00  1.32663229e+00  1.33416332e+00
  1.36268213e+00  1.36402843e+00  1.38554690e+00  1.41160622e+00
  1.42398517e+00  1.43199888e+00  1.44055387e+00  1.44359139e+00
  1.45416530e+00  1.46130603e+00  1.46814539e+00  1.47600632e+00
  1.48431327e+00  1.48738984e+00  1.49777843e+00  1.50086821e+00
  1.50385680e+00  1.50967709e+00  1.52008918e+00  1.53629266e+00
  1.54194063e+00  1.54909860e+00  1.55271466e+00  1.56546070e+00
  1.57395098e+00  1.57992543e+00  1.58442529e+00  1.58972853e+00
  1.60270501e+00  1.61081826e+00  1.61421424e+00  1.62150473e+00
  1.62508177e+00  1.63568740e+00  1.64356648e+00  1.64472552e+00
  1.65107040e+00  1.66007890e+00  1.66712953e+00  1.68113585e+00
  1.69089935e+00  1.70210991e+00  1.72179283e+00  1.72541782e+00
  1.73143797e+00  1.73723656e+00  1.75695627e+00  1.76565432e+00
  1.76973137e+00  1.77717887e+00  1.80252224e+00  1.80841741e+00
  1.81419558e+00  1.82368105e+00  1.82938069e+00  1.84062044e+00
  1.84428359e+00  1.85575166e+00  1.86034657e+00  1.86747335e+00
  1.87555962e+00  1.88769209e+00  1.89608180e+00  1.90884777e+00
  1.91256083e+00  1.92811833e+00  1.93825846e+00  1.94598455e+00
  1.95102656e+00  1.95452510e+00  1.96968452e+00  1.97721761e+00
  1.97816908e+00  1.99112254e+00  2.00613793e+00  2.02075812e+00
  2.02764445e+00  2.03848462e+00  2.04366878e+00  2.05668504e+00
  2.07138382e+00  2.07700027e+00  2.08375078e+00  2.09145702e+00
  2.10228719e+00  2.12861879e+00  2.13738022e+00  2.14554491e+00
  2.16182108e+00  2.16890540e+00  2.17168727e+00  2.18344947e+00
  2.20024340e+00  2.20374826e+00  2.22516020e+00  2.23798244e+00
  2.24194644e+00  2.26310389e+00  2.27055139e+00  2.27555585e+00
  2.29792175e+00  2.31556512e+00  2.31945654e+00  2.32370747e+00
  2.34823879e+00  2.37282057e+00  2.38647290e+00  2.38773270e+00
  2.41308142e+00  2.43379751e+00  2.44471909e+00  2.45085272e+00
  2.47397636e+00  2.47550467e+00  2.49618723e+00  2.51201071e+00
  2.53376956e+00  2.54761875e+00  2.55291172e+00  2.56636916e+00
  2.57911845e+00  2.59161908e+00  2.59759323e+00  2.61731963e+00
  2.62193217e+00  2.63591128e+00  2.64748106e+00  2.65409030e+00
  2.67372158e+00  2.67607063e+00  2.68502674e+00  2.70714346e+00
  2.71826612e+00  2.72252535e+00  2.73476885e+00  2.74184917e+00
  2.74649701e+00  2.76819625e+00  2.77208691e+00  2.77917650e+00
  2.78796238e+00  2.80675164e+00  2.81318529e+00  2.82285020e+00
  2.84117080e+00  2.84841930e+00  2.85345772e+00  2.87445743e+00
  2.88511356e+00  2.89490512e+00  2.90601396e+00  2.91298493e+00
  2.93206991e+00  2.93898335e+00  2.94292740e+00  2.94951203e+00
  2.95886066e+00  2.97290830e+00  2.98889564e+00  2.99715156e+00
  3.00186878e+00  3.00730313e+00  3.02513425e+00  3.04668916e+00
  3.05886716e+00  3.06506222e+00  3.08905021e+00  3.09565526e+00
  3.10065552e+00  3.10581678e+00  3.10945404e+00  3.12158750e+00
  3.13410234e+00  3.14494526e+00  3.15126090e+00  3.16486594e+00
  3.17272953e+00  3.18404976e+00  3.19012811e+00  3.19391417e+00
  3.20226635e+00  3.20861948e+00  3.21786285e+00  3.22998961e+00
  3.23322957e+00  3.24270896e+00  3.25759458e+00  3.26550350e+00
  3.27854454e+00  3.28133549e+00  3.29148427e+00  3.30089851e+00
  3.31108314e+00  3.32108128e+00  3.32714256e+00  3.32893145e+00
  3.34269460e+00  3.34531474e+00  3.35384781e+00  3.37242592e+00
  3.38714379e+00  3.39329613e+00  3.40326842e+00  3.41291675e+00
  3.42163429e+00  3.42947461e+00  3.44085730e+00  3.44236443e+00
  3.44637275e+00  3.45740408e+00  3.46636104e+00  3.47296391e+00
  3.47759661e+00  3.49121618e+00  3.49849556e+00  3.50002392e+00
  3.52735557e+00  3.53166600e+00  3.56019951e+00  3.58040421e+00
  3.58812420e+00  3.61787006e+00  3.63962710e+00  3.65345934e+00
  3.65499534e+00  3.67673763e+00  3.68029910e+00  3.68769124e+00
  3.69694300e+00  3.70505072e+00  3.72160854e+00  3.73301486e+00
  3.75055200e+00  3.77431013e+00  3.79829259e+00  3.81184094e+00
  3.83285823e+00  3.85291326e+00  3.86640642e+00  3.87539361e+00
  3.90430267e+00  3.91329068e+00  3.92384572e+00  3.94105954e+00
  3.94991211e+00  3.95572997e+00  3.96569945e+00  3.97138899e+00
  3.99721531e+00  4.00302265e+00  4.03026348e+00  4.04367704e+00
  4.04864301e+00  4.07462777e+00  4.09929274e+00  4.11360226e+00
  4.13023853e+00  4.14638818e+00  4.15909081e+00  4.17036636e+00
  4.18655549e+00  4.21949016e+00  4.22469315e+00  4.24913349e+00
  4.27824749e+00  4.30285956e+00  4.34953879e+00  4.36728880e+00
  4.38652587e+00  4.41646259e+00  4.43722929e+00  4.43967634e+00
  4.49004170e+00  4.54617901e+00  4.56239819e+00  4.58542407e+00
  4.63965677e+00  4.65437945e+00  4.75314463e+00  4.75341103e+00
  4.76041037e+00  4.77442896e+00  4.78374919e+00  4.82797372e+00
  4.87061028e+00  4.88189500e+00  4.88629991e+00  4.89299513e+00
  4.89961562e+00  4.94609292e+00  4.95714499e+00  4.97915353e+00
  5.01974146e+00  5.09902028e+00  5.11430476e+00  5.14143180e+00
  5.15240178e+00  5.15800856e+00  5.19209633e+00  5.20666706e+00
  5.23290097e+00  5.25392084e+00  5.26501988e+00  5.27397139e+00
  5.30830640e+00  5.33006460e+00  5.35763587e+00  5.37531314e+00
  5.40175077e+00  5.40789737e+00  5.44336120e+00  5.46523266e+00
  5.47479302e+00  5.48878216e+00  5.52937672e+00  5.57483830e+00
  5.58608894e+00  5.62638326e+00  5.67692612e+00  5.72378730e+00
  5.76957401e+00  5.77791716e+00  5.79511213e+00  5.82145334e+00
  5.88149283e+00  5.90292316e+00  5.94477063e+00  5.97185158e+00
  6.07293616e+00  6.19037762e+00  6.21582420e+00  6.29163198e+00
  6.33132499e+00  6.37653777e+00  6.38833182e+00  6.41879137e+00
  6.46968615e+00  6.49220906e+00  6.66774724e+00  6.70668665e+00
  6.71240804e+00  6.76790063e+00  6.80071942e+00  6.84114512e+00
  6.90689113e+00  6.99155960e+00  7.11021781e+00  7.11531421e+00
  7.27003772e+00  7.33076943e+00  8.91776694e+00  8.95182213e+00
  9.38491477e+00  9.44255995e+00  9.48376188e+00  9.54977271e+00
  1.96314984e+01  2.02689987e+01  2.22902973e+01  2.23388107e+01
  2.26051240e+01  2.26915735e+01  2.27283919e+01  2.27759004e+01
  2.29273242e+01  2.30296356e+01  2.31165033e+01  2.32486203e+01
  2.34242678e+01  3.25195824e+01  3.26396786e+01  4.38772662e+01
  4.39540754e+01  4.40177043e+01]
nelec by numeric integration = 143.99999050679907
    CPU time for vxc     72.56 sec, wall time      5.36 sec
    CPU time for df vj and vk    134.49 sec, wall time     10.75 sec
E1 = -5026.8772010829925  Ecoul = 2169.2879193713397  Exc = -152.5242196473106
Extra cycle  E= -1554.74915518016  delta_E= -5e-12  |g|= 5.84e-07  |ddm|= 8.1e-07
    CPU time for scf_cycle   1407.37 sec, wall time    114.70 sec
    CPU time for SCF   1407.37 sec, wall time    114.70 sec
converged SCF energy = -1554.74915518016
SCF Done after  114.7039 seconds
after SCF memory used: 2991.3046875 MB
Converting <class 'pyscf.df.df_jk.density_fit.<locals>.DFHF'> to RHF
Converting <class 'pyscf.df.df_jk.density_fit.<locals>.DFHF'> to RHF
a_x = 0.25
beta = 0.6575
alpha = 1.54
hdiag (39312,)
n_occ =  72
n_vir =  546
max_vir =  162
Q-Gamma tensors building time = 13.5073
after Q matrix memory used: 3162.2734375 MB
-------------------------------------------------------------------
|---------------   In-house Developed Davidson Starts   -----------|
Residual conv = 1e-05
Number of excited states = 20
Initial guess:   sTDA
Preconditioner:  sTDA
A matrix size =  39312 * 39312
sTDA nstate = 28
sTDA A diagonalization: threshold = 0.001 ; in 4 steps  3.1467 seconds
sTDA excitation energies:
[3.70654354 3.90133867 4.06022842 4.32189792 4.47325611 4.49510066
 4.70316088 4.86016421 4.97482694 5.08255938 5.3624912  5.38767686
 5.44031838 5.70196497 5.77600678 5.79270151 5.80311151 5.82125279
 5.90809607 6.01357847 6.06880614 6.17417834 6.20335232 6.25990266
 6.30450251 6.3418813  6.36269728 6.37008111]
Intial guess time: 3.2556 seconds
    CPU time for df vj and vk   3412.66 sec, wall time    246.74 sec
Iteration  0
subspace size:  28
maximum residual norm 0.07502224401912422
sTDA Preconditioning Done after  12 steps;  4.2814 seconds
subgencost 0.5463 12.76 %
mvcost 0.5903 13.79 %
GScost 2.4348 56.87 %
subcost 0.0528 1.23 %
m,new_m 28 48
    CPU time for df vj and vk   2373.66 sec, wall time    170.74 sec
new generated guesses: 20
Iteration  1
subspace size:  48
maximum residual norm 0.01497432991796718
sTDA Preconditioning Done after  11 steps;  3.7928 seconds
subgencost 0.4262 11.24 %
mvcost 0.5772 15.22 %
GScost 2.3109 60.93 %
subcost 0.0455 1.2 %
m,new_m 48 68
    CPU time for df vj and vk   2418.71 sec, wall time    174.59 sec
new generated guesses: 20
Iteration  2
subspace size:  68
maximum residual norm 0.005283116522585999
sTDA Preconditioning Done after  11 steps;  3.7036 seconds
subgencost 0.4364 11.78 %
mvcost 0.5713 15.42 %
GScost 2.1741 58.7 %
subcost 0.05 1.35 %
m,new_m 68 88
    CPU time for df vj and vk   2405.54 sec, wall time    173.92 sec
new generated guesses: 20
Iteration  3
subspace size:  88
maximum residual norm 0.0010298609716049652
sTDA Preconditioning Done after  13 steps;  3.989 seconds
subgencost 0.5128 12.85 %
mvcost 0.6007 15.06 %
GScost 2.3757 59.56 %
subcost 0.0617 1.55 %
m,new_m 88 108
    CPU time for df vj and vk   2419.96 sec, wall time    173.50 sec
new generated guesses: 20
Iteration  4
subspace size:  108
maximum residual norm 0.00020159265613419003
sTDA Preconditioning Done after  11 steps;  3.4299 seconds
subgencost 0.4099 11.95 %
mvcost 0.5339 15.57 %
GScost 2.0199 58.89 %
subcost 0.0474 1.38 %
m,new_m 108 128
    CPU time for df vj and vk   2412.96 sec, wall time    174.38 sec
new generated guesses: 20
Iteration  5
subspace size:  128
maximum residual norm 2.8770422814426778e-05
sTDA Preconditioning Done after  16 steps;  1.0169 seconds
subgencost 0.1805 17.75 %
mvcost 0.2933 28.84 %
GScost 0.3686 36.25 %
subcost 0.0245 2.41 %
m,new_m 128 133
    CPU time for df vj and vk    625.14 sec, wall time     45.64 sec
new generated guesses: 5
Iteration  6
subspace size:  133
maximum residual norm 7.477762096673562e-06
Davidson procedure aborted
Davidson done after  1665.3055 seconds
Total steps = 7
Final subspace shape =  (133, 133)
Preconditioning time: 20.3867 1.22 %
In-house Davidson time: 1665.3536 seconds
Excited State energies (eV) =
[3.98827859 4.09194848 4.24183959 4.46809361 4.61775672 4.67975627
 4.89396798 5.05448617 5.24714118 5.2582811  5.61810098 5.64122564
 5.69423151 5.72727366 6.00740728 6.01592349 6.05622439 6.10240733
 6.14904414 6.2388473 ]
|---------------   In-house Developed Davidson Done   -----------|
-------------------------------------------------------------------
|---------------   In-house Developed Davidson Starts   -----------|
Residual conv = 1e-05
Number of excited states = 20
Initial guess:   Adiag
Preconditioner:  Adiag
A matrix size =  39312 * 39312
Intial guess time: 0.0046 seconds
    CPU time for df vj and vk   3371.00 sec, wall time    240.57 sec
Iteration  0
subspace size:  28
maximum residual norm 0.10354225441174027
m,new_m 28 48
    CPU time for df vj and vk   2422.50 sec, wall time    174.26 sec
new generated guesses: 20
Iteration  1
subspace size:  48
maximum residual norm 0.060290065769898066
m,new_m 48 68
    CPU time for df vj and vk   2384.98 sec, wall time    170.94 sec
new generated guesses: 20
Iteration  2
subspace size:  68
maximum residual norm 0.016535633729621135
m,new_m 68 88
    CPU time for df vj and vk   2428.49 sec, wall time    174.57 sec
new generated guesses: 20
Iteration  3
subspace size:  88
maximum residual norm 0.011916629841223955
m,new_m 88 108
    CPU time for df vj and vk   2444.15 sec, wall time    175.11 sec
new generated guesses: 20
Iteration  4
subspace size:  108
maximum residual norm 0.004381562943389157
m,new_m 108 128
    CPU time for df vj and vk   2417.28 sec, wall time    172.85 sec
new generated guesses: 20
Iteration  5
subspace size:  128
maximum residual norm 0.001983216958362989
m,new_m 128 148
    CPU time for df vj and vk   2435.91 sec, wall time    176.15 sec
new generated guesses: 20
Iteration  6
subspace size:  148
maximum residual norm 0.0007226472915921628
m,new_m 148 158
    CPU time for df vj and vk   1239.20 sec, wall time     90.66 sec
new generated guesses: 10
Iteration  7
subspace size:  158
maximum residual norm 0.00016527221770325343
m,new_m 158 164
    CPU time for df vj and vk    727.13 sec, wall time     52.95 sec
new generated guesses: 6
Iteration  8
subspace size:  164
maximum residual norm 3.6348061884449684e-05
m,new_m 164 165
    CPU time for df vj and vk    154.71 sec, wall time     13.17 sec
new generated guesses: 1
Iteration  9
subspace size:  165
maximum residual norm 6.798753509985189e-06
Davidson procedure aborted
Davidson done after  2069.2474 seconds
Total steps = 10
Final subspace shape =  (165, 165)
Preconditioning time: 0.2375 0.01 %
In-house Davidson time: 2069.2929 seconds
Excited State energies (eV) =
[3.98827859 4.09194848 4.24183959 4.46809361 4.61775672 4.67975627
 4.89396798 5.05448617 5.24714118 5.2582811  5.61810098 5.64122564
 5.69423151 5.72727366 6.00740728 6.01592349 6.05622439 6.10240733
 6.14904414 6.2388473 ]
|---------------   In-house Developed Davidson Done   -----------|
xyzfile = 26_Firefly_luciferin.xyz
checkfile = True
method = RKS
functional = pbe0
basis_set = def2-tzvp
density_fit = True
grid_level = 3
nstates = 20
pytd = False
TDA = True
TDDFT = False
dynpol = False
dynpol_omega = []
stapol = False
sTDA = False
sTDDFT = False
Truncate_test = False
truncate_virtual = 40.0
TDA_options = [0, 1]
TDDFT_options = [0]
dynpol_options = [0]
stapol_options = [0]
TDA_tolerance = 1e-05
TDDFT_tolerance = 1e-05
dynpol_tolerance = 1e-05
stapol_tolerance = 1e-05
max = 35
TDA_initialTOL = 0.001
TDDFT_initialTOL = 0.001
dynpol_initprecTOL = 0.01
stapol_initprecTOL = 0.01
TDA_precondTOL = 0.01
TDDFT_precondTOL = 0.01
TDA_extrainitial = 8
TDDFT_extrainitial = 8
TDDFT_extrainitial_3n = False
eigensolver_tol = 1e-05
memory = 50000
verbose = 5
beta = []
alpha = []
