curpath /scratch/pbsjobs/job.16219595.hpc
lib.num_threads() =  20
at beginning memory used: 0.05 GB
mol.max_memory 70000


System: uname_result(system='Linux', node='compt254', release='3.10.0-1127.el7.x86_64', version='#1 SMP Tue Feb 18 16:39:12 EST 2020', machine='x86_64', processor='x86_64')  Threads 20
Python 3.5.1 (default, Apr 20 2017, 11:25:55) 
[GCC Intel(R) C++ gcc 4.8.5 mode]
numpy 1.11.2  scipy 0.19.0
Date: Mon Aug 30 22:33:00 2021
PySCF version 1.7.4
PySCF path  /home/smp201/apps/pyscf/pyscf
GIT HEAD      ref: refs/heads/master
GIT master branch  b8813f865829009a819596dee869181c5158ee5c

[CONFIG] conf_file None
[INPUT] verbose = 5
[INPUT] max_memory = 70000 
[INPUT] num. atoms = 37
[INPUT] num. electrons = 182
[INPUT] charge = 0
[INPUT] spin (= nelec alpha-beta = 2S) = 0
[INPUT] symmetry False subgroup None
[INPUT] Mole.unit = angstrom
[INPUT]  1 C      5.539472397252  -2.559190489899  -0.063472757804 AA   10.468085705394  -4.836169126501  -0.119946128621 Bohr
[INPUT]  2 C      5.976270596530  -1.270921113302  -0.293638598156 AA   11.293514673732  -2.401692830068  -0.554896530116 Bohr
[INPUT]  3 C      4.909597399923  -0.329157071246  -0.345690617648 AA    9.277794467732  -0.622016716619  -0.653260591187 Bohr
[INPUT]  4 C      3.657710160230  -0.904747597797  -0.154411186286 AA    6.912070445874  -1.709725171695  -0.291794852649 Bohr
[INPUT]  5 S      3.815985695423  -2.633019445726   0.099662551795 AA    7.211167859608  -4.975685633077   0.188334927769 Bohr
[INPUT]  6 H      6.129426453180  -3.472989704849   0.022250138537 AA   11.582937297174  -6.562999375599   0.042046668068 Bohr
[INPUT]  7 H      7.029404741956  -1.009392347436  -0.424717899723 AA   13.283649781016  -1.907475088885  -0.802600510677 Bohr
[INPUT]  8 H      5.043352393929   0.740800082696  -0.528187350471 AA    9.530554774196   1.399909269351  -0.998129434850 Bohr
[INPUT]  9 C      2.355740746644  -0.272688711729  -0.141521446324 AA    4.451704831636  -0.515306982429  -0.267436774304 Bohr
[INPUT] 10 C      1.098444276007  -0.850925936670  -0.124866336462 AA    2.075758844749  -1.608016972596  -0.235963178092 Bohr
[INPUT] 11 S      2.225256181596   1.476582504237  -0.146355266717 AA    4.205124740212   2.790336533332  -0.276571370983 Bohr
[INPUT] 12 C      0.011684609922   0.083499821427  -0.143392766621 AA    0.022080712625   0.157791793947  -0.270973057158 Bohr
[INPUT] 13 H      0.957677522042  -1.934718271754  -0.142984546408 AA    1.809748232311  -3.656087661807  -0.270201632757 Bohr
[INPUT] 14 C      0.473265173107   1.414818907824  -0.169210142058 AA    0.894341561468   2.673620251643  -0.319760825988 Bohr
[INPUT] 15 C     -0.241667955170   2.673826287463  -0.192020573273 AA   -0.456686248355   5.052799387968  -0.362866293769 Bohr
[INPUT] 16 C      0.198562130907   3.889967159574  -0.711630141506 AA    0.375228046124   7.350972565147  -1.344786069431 Bohr
[INPUT] 17 S     -1.815554123758   2.884929238130   0.566436254835 AA   -3.430900058227   5.451726148816   1.070409388662 Bohr
[INPUT] 18 C     -0.720647863796   4.957919669503  -0.517390201315 AA   -1.361827094828   9.369110322955  -0.977725780018 Bohr
[INPUT] 19 H      1.153645545869   3.987454146755  -1.235075542025 AA    2.180074126518   7.535196271628  -2.333954517576 Bohr
[INPUT] 20 C     -1.861430597315   4.565087604373   0.152635028141 AA   -3.517594028811   8.626765306912   0.288438400202 Bohr
[INPUT] 21 H     -0.553176736082   5.979327947559  -0.868797524123 AA   -1.045352529677  11.299292229845  -1.641789378293 Bohr
[INPUT] 22 H     -2.733185652861   5.164121576755   0.420903026749 AA   -5.164972331497   9.758775454025   0.795391445557 Bohr
[INPUT] 23 C     -1.395102614108  -0.279361415062  -0.189985357437 AA   -2.636361856329  -0.527916564237  -0.359020293233 Bohr
[INPUT] 24 C     -1.904665420259  -1.521221435802   0.034155995175 AA   -3.599296003220  -2.874691888483   0.064545476393 Bohr
[INPUT] 25 H     -2.085763365568   0.535307927599  -0.434666165545 AA   -3.941521521575   1.011585375470  -0.821400008494 Bohr
[INPUT] 26 H     -1.217741552684  -2.334132765502   0.303231175629 AA   -2.301198025076  -4.410871665172   0.573023874369 Bohr
[INPUT] 27 C     -3.315776403614  -1.903170285593  -0.030741025625 AA   -6.265909293127  -3.596470608181  -0.058092119219 Bohr
[INPUT] 28 C     -3.676816529174  -3.244861312697   0.239921543832 AA   -6.948176250413  -6.131899193194   0.453386009226 Bohr
[INPUT] 29 C     -4.353026754594  -0.991587515403  -0.349534260900 AA   -8.226028379086  -1.873828832649  -0.660524024254 Bohr
[INPUT] 30 C     -5.011823851962  -3.661886137379   0.194496265915 AA   -9.470974464770  -6.919961898987   0.367544674829 Bohr
[INPUT] 31 H     -2.889118961742  -3.965079781445   0.489626836200 AA   -5.459643578981  -7.492914848981   0.925260623655 Bohr
[INPUT] 32 C     -5.685364130973  -1.408152389347  -0.393039474930 AA  -10.743781125965  -2.661022357517  -0.742736963760 Bohr
[INPUT] 33 H     -4.111821504203   0.054593848912  -0.563093641163 AA   -7.770216516041   0.103167422529  -1.064092764282 Bohr
[INPUT] 34 C     -6.024349877815  -2.745145241484  -0.122417788658 AA  -11.384371347628  -5.187572678558  -0.231336093338 Bohr
[INPUT] 35 H     -5.263105731217  -4.706440418581   0.407672316531 AA   -9.945828396630  -8.893883412701   0.770389026811 Bohr
[INPUT] 36 H     -6.469998829849  -0.685164008120  -0.641089425606 AA  -12.226525814671  -1.294772325756  -1.211483435750 Bohr
[INPUT] 37 H     -7.070318567773  -3.067121325985  -0.159246096555 AA  -13.360965706518  -5.796019296924  -0.300931508895 Bohr
[INPUT] ---------------- BASIS SET ---------------- 
[INPUT] l, kappa, [nprim/nctr], expnt,             c_1 c_2 ...
[INPUT] C
[INPUT] 0    0    [6    /1   ]  13575.349682      0.00022245814352
                                2035.233368       0.0017232738252
                                463.22562359      0.0089255715314
                                131.20019598      0.035727984502
                                42.853015891      0.11076259931
                                15.584185766      0.24295627626
[INPUT] 0    0    [2    /1   ]  6.2067138508      0.41440263448
                                2.5764896527      0.23744968655
[INPUT] 0    0    [1    /1   ]  0.57696339419        1
[INPUT] 0    0    [1    /1   ]  0.22972831358        1
[INPUT] 0    0    [1    /1   ]  0.095164440028       1
[INPUT] 1    0    [4    /1   ]  34.697232244      0.0053333657805
                                7.9582622826      0.035864109092
                                2.3780826883      0.14215873329
                                0.81433208183     0.34270471845
[INPUT] 1    0    [1    /1   ]  0.28887547253        1
[INPUT] 1    0    [1    /1   ]  0.10056823671        1
[INPUT] 2    0    [1    /1   ]  1.097                1
[INPUT] 2    0    [1    /1   ]  0.318                1
[INPUT] 3    0    [1    /1   ]  0.761                1
[INPUT] H
[INPUT] 0    0    [3    /1   ]  34.061341         0.0060251978
                                5.1235746         0.045021094
                                1.1646626         0.20189726
[INPUT] 0    0    [1    /1   ]  0.32723041           1
[INPUT] 0    0    [1    /1   ]  0.10307241           1
[INPUT] 1    0    [1    /1   ]  0.8                  1
[INPUT] S
[INPUT] 0    0    [7    /1   ]  60700.928104      0.00054695944225
                                9102.6106854      0.0042297224557
                                2071.4166009      0.021747824159
                                586.02476821      0.085100053589
                                190.55395021      0.24799128459
                                67.63038426       0.46703640406
                                25.127306905      0.3643458755
[INPUT] 0    0    [3    /1   ]  112.5746301       0.02167004024
                                34.795554217      0.09360230176
                                6.5115556215      -0.26068001422
[INPUT] 0    0    [2    /1   ]  3.2399032261      1.2842089435
                                1.5477160881      0.66036416584
[INPUT] 0    0    [1    /1   ]  0.40541030112        1
[INPUT] 0    0    [1    /1   ]  0.14550651059        1
[INPUT] 1    0    [5    /1   ]  564.36716027      0.0024796796317
                                133.42624379      0.01967793025
                                42.468271189      0.089980008258
                                15.61652758       0.25705880575
                                6.1093988469      0.43515167292
[INPUT] 1    0    [1    /1   ]  2.4404160198         1
[INPUT] 1    0    [1    /1   ]  0.83882201296        1
[INPUT] 1    0    [1    /1   ]  0.312887469          1
[INPUT] 1    0    [1    /1   ]  0.10770109004        1
[INPUT] 2    0    [2    /1   ]  3.756              0.2
                                0.812                1
[INPUT] 2    0    [1    /1   ]  0.273                1
[INPUT] 3    0    [1    /1   ]  0.557                1

nuclear repulsion = 2045.84560231184
number of shells = 315
number of NR pGTOs = 1221
number of NR cGTOs = 815
basis = def2-tzvp
ecp = {}
CPU time:         0.66
RKS
Density fitting turned on
Molecule built
Calculating SCF Energy...


******** <class 'pyscf.df.df_jk.density_fit.<locals>.DFHF'> ********
method = DFHF-RKS-RHF
initial guess = chkfile
damping factor = 0
level_shift factor = 0
DIIS = <class 'pyscf.scf.diis.CDIIS'>
diis_start_cycle = 1
diis_space = 8
SCF conv_tol = 1e-10
SCF conv_tol_grad = None
SCF max_cycles = 50
direct_scf = True
direct_scf_tol = 1e-13
chkfile to save SCF result = 37_Rpet_pbe0.chk
max_memory 70000 MB (current use 58 MB)
XC functionals = pbe0
small_rho_cutoff = 1e-07
radial grids: 
    Treutler-Ahlrichs [JCP 102, 346 (1995); DOI:10.1063/1.469408] (M4) radial grids
    
becke partition: Becke, JCP 88, 2547 (1988); DOI:10.1063/1.454033
pruning grids: <function nwchem_prune at 0x7fe527851840>
grids dens level: 3
symmetrized grids: False
atomic radii adjust function: <function treutler_atomic_radii_adjust at 0x7fe5278517b8>
Set gradient conv threshold to 1e-05
atom C rad-grids = 75, ang-grids = [ 50  50  50  50  50  50  50  50  50  50  50  50  50  50  50  50  50  50
  50  50  50  50  50  86  86  86  86  86  86  86  86  86  86 266 266 266
 266 266 266 266 302 302 302 302 302 302 302 302 302 302 302 302 302 302
 302 302 302 302 302 302 266 266 266 266 266 266 266 266 266 266 266 266
 266 266 266]
atom S rad-grids = 80, ang-grids = [ 50  50  50  50  50  50  50  50  50  50  50  50  50  50  50  50  50  50
  50  50  50  50  50  50  86  86  86  86  86  86  86  86  86  86  86  86
  86 350 350 350 350 350 350 350 350 350 434 434 434 434 434 434 434 434
 434 434 434 434 434 434 434 434 434 434 350 350 350 350 350 350 350 350
 350 350 350 350 350 350 350 350]
atom H rad-grids = 50, ang-grids = [ 50  50  50  50  50  50  50  50  50  50  50  50  50  50  86  86  86  86
 266 266 266 266 302 302 302 302 302 302 302 302 302 302 302 302 302 266
 266 266 266 266 266 266 266 266 266 266 266 266 266 266]
tot grids = 475016
Drop grids 75087
    CPU time for setting up grids     61.92 sec, wall time      3.65 sec
nelec by numeric integration = 182.00005068
    CPU time for vxc     81.21 sec, wall time      4.41 sec
******** <class 'pyscf.df.df.DF'> ********
auxbasis = None
max_memory = 70000
_cderi_to_save = /tmp/job.16219595.hpc/tmpyuh1g2kv
Default auxbasis def2-tzvp-jkfit is used for C def2-tzvp
Default auxbasis def2-tzvp-jkfit is used for H def2-tzvp
Default auxbasis def2-tzvp-jkfit is used for S def2-tzvp
num shells = 698, num cGTOs = 2136
size of aux basis 2136
int3c2e [1/1], AO [0:315], nrow = 332520
    CPU time for cholesky_eri     96.82 sec, wall time     52.31 sec
    CPU time for df vj and vk    295.42 sec, wall time     63.28 sec
E1 = -6759.89792211  Ecoul = 2939.42310791  Exc = -189.455823988
init E= -1964.08503587473
cond(S) = 1079585.18299
    CPU time for initialize scf    446.67 sec, wall time     71.91 sec
  HOMO = -0.201969860145636  LUMO = -0.0735461810593031
  mo_energy =
[ -8.90606196e+01  -8.90595330e+01  -8.90583835e+01  -1.02798153e+01
  -1.02795770e+01  -1.02787226e+01  -1.02779798e+01  -1.02633248e+01
  -1.02627302e+01  -1.02542796e+01  -1.02458003e+01  -1.02417927e+01
  -1.02415443e+01  -1.02412777e+01  -1.02412137e+01  -1.02408940e+01
  -1.02390490e+01  -1.02381641e+01  -1.02341446e+01  -1.02340903e+01
  -1.02335578e+01  -1.02333107e+01  -1.02329668e+01  -8.03794388e+00
  -8.03702075e+00  -8.03602389e+00  -5.97389699e+00  -5.97299612e+00
  -5.97217200e+00  -5.97040122e+00  -5.96952343e+00  -5.96864991e+00
  -5.96809726e+00  -5.96712173e+00  -5.96574753e+00  -9.28649468e-01
  -9.12260592e-01  -8.96661743e-01  -8.84486544e-01  -8.30475050e-01
  -8.06029652e-01  -7.84148299e-01  -7.69589056e-01  -7.62953635e-01
  -7.62473253e-01  -7.55788376e-01  -7.32476402e-01  -7.11361920e-01
  -6.52383252e-01  -6.33591675e-01  -6.25406768e-01  -6.10148710e-01
  -5.84246291e-01  -5.79700403e-01  -5.67645532e-01  -5.50983901e-01
  -5.45174692e-01  -5.36756474e-01  -5.26426258e-01  -5.07884740e-01
  -4.82301636e-01  -4.76818308e-01  -4.60811963e-01  -4.50501180e-01
  -4.35074423e-01  -4.33685589e-01  -4.28565084e-01  -4.25907018e-01
  -4.23132067e-01  -4.17935657e-01  -4.12426644e-01  -4.11492160e-01
  -4.04900467e-01  -3.94409981e-01  -3.89430672e-01  -3.85379612e-01
  -3.79743746e-01  -3.70952475e-01  -3.60583856e-01  -3.58980904e-01
  -3.51046293e-01  -3.48480650e-01  -3.32222331e-01  -3.05112761e-01
  -2.82492376e-01  -2.72780248e-01  -2.72242365e-01  -2.68780983e-01
  -2.58710455e-01  -2.31596976e-01  -2.01969860e-01  -7.35461811e-02
  -5.44664766e-02  -2.06587803e-02  -1.06145868e-02   1.00497677e-02
   1.17228163e-02   1.93219856e-02   2.02968420e-02   3.71191972e-02
   4.98716486e-02   5.45555495e-02   5.74510334e-02   5.84895565e-02
   6.21378083e-02   7.12345821e-02   7.20550661e-02   8.17429921e-02
   8.65593823e-02   9.04297809e-02   9.69504573e-02   9.92748789e-02
   1.03764749e-01   1.11759646e-01   1.15702457e-01   1.19123695e-01
   1.23072634e-01   1.33211077e-01   1.35337648e-01   1.39937247e-01
   1.47928340e-01   1.50247557e-01   1.61291368e-01   1.67018762e-01
   1.73491695e-01   1.82590404e-01   1.86864084e-01   1.90045023e-01
   1.96583549e-01   2.03118440e-01   2.07813022e-01   2.11669023e-01
   2.17689191e-01   2.21101302e-01   2.24294297e-01   2.24506122e-01
   2.28550259e-01   2.31944351e-01   2.33332123e-01   2.35381166e-01
   2.38017321e-01   2.40792667e-01   2.43002921e-01   2.46840953e-01
   2.49998007e-01   2.53972588e-01   2.58213464e-01   2.63348864e-01
   2.68159039e-01   2.70262361e-01   2.74172474e-01   2.78073997e-01
   2.81053423e-01   2.86179031e-01   2.88080457e-01   2.95198499e-01
   3.00746248e-01   3.02770216e-01   3.12584390e-01   3.13640347e-01
   3.15538563e-01   3.18942233e-01   3.23051386e-01   3.30226791e-01
   3.33260892e-01   3.35600801e-01   3.38935075e-01   3.42641412e-01
   3.46860606e-01   3.50505302e-01   3.52068380e-01   3.58663305e-01
   3.65920070e-01   3.66722708e-01   3.70885707e-01   3.76567694e-01
   3.80508434e-01   3.86729988e-01   3.89518508e-01   3.91457018e-01
   3.93409300e-01   3.98420967e-01   4.02702247e-01   4.05192559e-01
   4.06788646e-01   4.09389991e-01   4.11419417e-01   4.14021717e-01
   4.20248489e-01   4.23681676e-01   4.25909308e-01   4.26782726e-01
   4.30108892e-01   4.40548185e-01   4.42888532e-01   4.45492596e-01
   4.50089884e-01   4.52421854e-01   4.58288974e-01   4.61445977e-01
   4.70377658e-01   4.77370445e-01   4.78635335e-01   4.79779221e-01
   4.93081910e-01   4.95945862e-01   5.01221850e-01   5.04831841e-01
   5.13056112e-01   5.15168521e-01   5.17121935e-01   5.19742054e-01
   5.29914613e-01   5.33238827e-01   5.37168598e-01   5.48404220e-01
   5.55494522e-01   5.65882226e-01   5.68504969e-01   5.74471891e-01
   5.86356060e-01   5.89523658e-01   5.93882268e-01   6.01797292e-01
   6.02160389e-01   6.08583179e-01   6.17821825e-01   6.22196264e-01
   6.32416506e-01   6.33762575e-01   6.41399361e-01   6.46246449e-01
   6.53401583e-01   6.55698456e-01   6.62797283e-01   6.67336918e-01
   6.72477285e-01   6.76081377e-01   6.79506408e-01   6.81099147e-01
   6.86924226e-01   6.90991422e-01   6.94863487e-01   7.00527480e-01
   7.05214361e-01   7.05677523e-01   7.11059465e-01   7.16371842e-01
   7.22568647e-01   7.29828801e-01   7.33444976e-01   7.41001959e-01
   7.42917468e-01   7.44257909e-01   7.48207011e-01   7.51531562e-01
   7.65993701e-01   7.68701166e-01   7.76071891e-01   7.83973087e-01
   7.95197266e-01   7.99853649e-01   8.01410490e-01   8.08526625e-01
   8.10107040e-01   8.14887325e-01   8.19668226e-01   8.25619212e-01
   8.35859378e-01   8.44762891e-01   8.51583999e-01   8.59267688e-01
   8.63205666e-01   8.75014284e-01   8.79781039e-01   8.85207681e-01
   8.89933457e-01   9.02485350e-01   9.06743067e-01   9.10229335e-01
   9.24740541e-01   9.31217371e-01   9.34006144e-01   9.37422713e-01
   9.53331380e-01   9.57644006e-01   9.62380155e-01   9.69577699e-01
   9.77359476e-01   9.78526509e-01   9.86397578e-01   9.92208938e-01
   9.97705861e-01   1.00280255e+00   1.01220815e+00   1.01826104e+00
   1.02830480e+00   1.03324898e+00   1.03795581e+00   1.04480081e+00
   1.04988001e+00   1.06019290e+00   1.06346337e+00   1.07441840e+00
   1.07631879e+00   1.08437870e+00   1.08829815e+00   1.09525416e+00
   1.09982183e+00   1.11199669e+00   1.11692816e+00   1.12757162e+00
   1.13807456e+00   1.14332319e+00   1.15564071e+00   1.16704855e+00
   1.17328112e+00   1.18412849e+00   1.19623341e+00   1.20221851e+00
   1.21217705e+00   1.21487754e+00   1.22022586e+00   1.22723345e+00
   1.23182634e+00   1.23793814e+00   1.24758014e+00   1.26359472e+00
   1.26645052e+00   1.27212221e+00   1.27342231e+00   1.28081796e+00
   1.29037467e+00   1.29189959e+00   1.29945540e+00   1.30505350e+00
   1.31523710e+00   1.31718412e+00   1.32241383e+00   1.32870283e+00
   1.33876282e+00   1.34474024e+00   1.35650363e+00   1.36008498e+00
   1.37280827e+00   1.37863464e+00   1.38297315e+00   1.39153116e+00
   1.40415241e+00   1.40924609e+00   1.41962864e+00   1.42616733e+00
   1.43492456e+00   1.44426469e+00   1.44800467e+00   1.45406432e+00
   1.45820384e+00   1.46584243e+00   1.47823556e+00   1.48196134e+00
   1.48979353e+00   1.49059446e+00   1.50399097e+00   1.50680512e+00
   1.50894307e+00   1.51557748e+00   1.51587159e+00   1.52054327e+00
   1.52270982e+00   1.53021818e+00   1.53580504e+00   1.54523522e+00
   1.54795997e+00   1.55171607e+00   1.55755068e+00   1.56760071e+00
   1.57095732e+00   1.57899884e+00   1.58070681e+00   1.58751083e+00
   1.59180881e+00   1.59821987e+00   1.60392266e+00   1.60711641e+00
   1.61195498e+00   1.61511088e+00   1.62355979e+00   1.62686721e+00
   1.63290478e+00   1.63796713e+00   1.64620415e+00   1.64825297e+00
   1.65732833e+00   1.66286327e+00   1.67089096e+00   1.68128534e+00
   1.68937811e+00   1.69548871e+00   1.69916685e+00   1.70423595e+00
   1.70770586e+00   1.71883246e+00   1.72335743e+00   1.73173440e+00
   1.73715824e+00   1.75819165e+00   1.76824678e+00   1.77492571e+00
   1.78340550e+00   1.79215048e+00   1.79258576e+00   1.80265962e+00
   1.81536900e+00   1.81797377e+00   1.82658095e+00   1.83489247e+00
   1.84261968e+00   1.84567852e+00   1.85243310e+00   1.85747502e+00
   1.86362884e+00   1.86579056e+00   1.86984681e+00   1.87544178e+00
   1.88284326e+00   1.88544707e+00   1.89002028e+00   1.89434637e+00
   1.90619007e+00   1.91243211e+00   1.91649252e+00   1.92878266e+00
   1.93977249e+00   1.94274524e+00   1.95550653e+00   1.95995079e+00
   1.97252968e+00   1.97478889e+00   1.98137171e+00   1.98717253e+00
   1.99445122e+00   2.00302173e+00   2.00788205e+00   2.01098797e+00
   2.02209655e+00   2.03296907e+00   2.04535106e+00   2.05463335e+00
   2.06369622e+00   2.07066008e+00   2.07314126e+00   2.08422398e+00
   2.09760526e+00   2.10560868e+00   2.11152884e+00   2.11984402e+00
   2.12718098e+00   2.13451279e+00   2.14404650e+00   2.15035771e+00
   2.15211184e+00   2.15808576e+00   2.16277810e+00   2.18023023e+00
   2.18259524e+00   2.19080008e+00   2.19582414e+00   2.20068566e+00
   2.21917335e+00   2.22164743e+00   2.23738999e+00   2.24458760e+00
   2.25130268e+00   2.25788266e+00   2.26494460e+00   2.27634760e+00
   2.28299598e+00   2.28383509e+00   2.30262302e+00   2.31054808e+00
   2.31397585e+00   2.35679213e+00   2.36816456e+00   2.37953850e+00
   2.41617864e+00   2.44470614e+00   2.46681116e+00   2.46943384e+00
   2.47265433e+00   2.47592396e+00   2.48512150e+00   2.48970284e+00
   2.49259971e+00   2.51086703e+00   2.51301209e+00   2.52234274e+00
   2.53651362e+00   2.53943529e+00   2.54837248e+00   2.55309353e+00
   2.55869509e+00   2.56293308e+00   2.57329773e+00   2.57854750e+00
   2.58947368e+00   2.59488197e+00   2.60721083e+00   2.61113238e+00
   2.61451072e+00   2.61964155e+00   2.63038024e+00   2.63614709e+00
   2.64329574e+00   2.64827218e+00   2.65371915e+00   2.65933955e+00
   2.66347782e+00   2.66681807e+00   2.67599757e+00   2.67835317e+00
   2.68355775e+00   2.69310491e+00   2.70262757e+00   2.71007952e+00
   2.71220861e+00   2.72142577e+00   2.72566006e+00   2.73291177e+00
   2.73707274e+00   2.73916691e+00   2.76033780e+00   2.76160163e+00
   2.76504102e+00   2.76741109e+00   2.77168013e+00   2.77815392e+00
   2.78666191e+00   2.78842641e+00   2.80036668e+00   2.80869728e+00
   2.81520274e+00   2.82446906e+00   2.82655836e+00   2.82943187e+00
   2.83300041e+00   2.83548142e+00   2.84234098e+00   2.84774703e+00
   2.85007832e+00   2.85318959e+00   2.86571388e+00   2.86813211e+00
   2.87987423e+00   2.88569150e+00   2.89523833e+00   2.90248494e+00
   2.91400562e+00   2.92448155e+00   2.93245518e+00   2.93586804e+00
   2.94816142e+00   2.95570910e+00   2.96027938e+00   2.96823596e+00
   2.98007417e+00   2.98493297e+00   2.99752254e+00   3.00347348e+00
   3.01686948e+00   3.03025437e+00   3.03934672e+00   3.04623306e+00
   3.04750189e+00   3.05998323e+00   3.06209697e+00   3.06622918e+00
   3.07468189e+00   3.07858807e+00   3.08554688e+00   3.09004442e+00
   3.09835938e+00   3.10380650e+00   3.11179431e+00   3.11925527e+00
   3.12006795e+00   3.12223868e+00   3.12651563e+00   3.12956489e+00
   3.13603090e+00   3.14065783e+00   3.14523696e+00   3.15035960e+00
   3.15169479e+00   3.15954772e+00   3.16350229e+00   3.16831859e+00
   3.17658228e+00   3.18466037e+00   3.19239466e+00   3.20263577e+00
   3.20796064e+00   3.21529706e+00   3.21566617e+00   3.22444301e+00
   3.23999727e+00   3.24583923e+00   3.24880798e+00   3.25764180e+00
   3.26911184e+00   3.27624974e+00   3.28020496e+00   3.28098507e+00
   3.28648335e+00   3.29555823e+00   3.30085484e+00   3.30361261e+00
   3.31107550e+00   3.31299257e+00   3.31763340e+00   3.32306841e+00
   3.32767038e+00   3.33237161e+00   3.33778005e+00   3.34639975e+00
   3.35027374e+00   3.35472045e+00   3.35890236e+00   3.36696286e+00
   3.37646103e+00   3.38093468e+00   3.38476792e+00   3.39071486e+00
   3.39803639e+00   3.40203324e+00   3.41120282e+00   3.41988952e+00
   3.42430797e+00   3.43385009e+00   3.44410433e+00   3.44974318e+00
   3.45648631e+00   3.45722795e+00   3.46193737e+00   3.46909541e+00
   3.47485775e+00   3.48365921e+00   3.48765700e+00   3.49407986e+00
   3.50478425e+00   3.51167344e+00   3.51900679e+00   3.52284870e+00
   3.53114477e+00   3.54811727e+00   3.55298502e+00   3.55854396e+00
   3.57102609e+00   3.58128439e+00   3.58678565e+00   3.58770113e+00
   3.59401956e+00   3.60090966e+00   3.60825201e+00   3.61266320e+00
   3.61828589e+00   3.62674558e+00   3.64175397e+00   3.64352694e+00
   3.65168229e+00   3.66290789e+00   3.66915019e+00   3.68915883e+00
   3.69404576e+00   3.69720400e+00   3.70329199e+00   3.71823865e+00
   3.72660156e+00   3.74231898e+00   3.74431221e+00   3.75763359e+00
   3.77605656e+00   3.78682330e+00   3.80086533e+00   3.81193614e+00
   3.83526392e+00   3.85078206e+00   3.87157388e+00   3.88685657e+00
   3.88811379e+00   3.90406289e+00   3.92170418e+00   3.92645529e+00
   3.93498580e+00   3.94448751e+00   3.94767915e+00   3.95615464e+00
   3.97550786e+00   4.00563475e+00   4.01284682e+00   4.03366936e+00
   4.03670810e+00   4.05942584e+00   4.06213010e+00   4.09102586e+00
   4.10737474e+00   4.11767779e+00   4.13021022e+00   4.14057259e+00
   4.14764674e+00   4.16829500e+00   4.17317329e+00   4.19011050e+00
   4.19961792e+00   4.20263403e+00   4.22470025e+00   4.23071383e+00
   4.23099435e+00   4.23779074e+00   4.23981363e+00   4.24344881e+00
   4.25913426e+00   4.26506684e+00   4.27151283e+00   4.28514212e+00
   4.29191868e+00   4.31180270e+00   4.32336897e+00   4.34506620e+00
   4.35939542e+00   4.36964563e+00   4.38047190e+00   4.39602977e+00
   4.41142217e+00   4.42535378e+00   4.44759492e+00   4.45520029e+00
   4.47202117e+00   4.47754399e+00   4.51851904e+00   4.54802717e+00
   4.57204385e+00   4.59728993e+00   4.63424382e+00   4.65255010e+00
   4.65834469e+00   4.68013090e+00   4.68859248e+00   4.70117541e+00
   4.72168948e+00   4.72690783e+00   4.73977589e+00   4.74328215e+00
   4.76510395e+00   4.78322606e+00   4.82612298e+00   4.83348999e+00
   4.85303460e+00   4.87153760e+00   4.87297380e+00   4.89881647e+00
   4.93480078e+00   4.94829047e+00   4.95543889e+00   4.99336493e+00
   5.01079770e+00   5.03092358e+00   5.05288120e+00   5.07807924e+00
   5.10374032e+00   5.16062712e+00   5.19798023e+00   5.21676127e+00
   5.28190240e+00   5.28867018e+00   5.30703068e+00   5.38456592e+00
   5.42512555e+00   5.48767228e+00   5.49521075e+00   5.52461943e+00
   5.65245361e+00   5.66553492e+00   5.78096889e+00   8.91176343e+00
   8.94274899e+00   8.95438938e+00   9.45518705e+00   9.46131255e+00
   9.48509906e+00   9.52657015e+00   9.54627116e+00   9.56914607e+00
   2.01234082e+01   2.01808289e+01   2.02892962e+01   2.20436674e+01
   2.21864820e+01   2.22160890e+01   2.24918570e+01   2.25362285e+01
   2.25545443e+01   2.25951729e+01   2.26317581e+01   2.26771260e+01
   2.26845604e+01   2.27236088e+01   2.27771322e+01   2.28231150e+01
   2.28385413e+01   2.28800134e+01   2.29170631e+01   2.29467492e+01
   2.30718153e+01   2.32574472e+01   2.33749574e+01]
nelec by numeric integration = 182.00005068
    CPU time for vxc     60.81 sec, wall time      3.38 sec
    CPU time for df vj and vk    203.21 sec, wall time     11.47 sec
E1 = -6759.89805555  Ecoul = 2939.42324402  Exc = -189.455826657
cycle= 1 E= -1964.08503587464  delta_E= 8.37e-11  |g|= 1.82e-05  |ddm|= 3.6e-05
    CPU time for cycle= 1    268.11 sec, wall time     15.52 sec
  HOMO = -0.201968151368883  LUMO = -0.07354454156109
  mo_energy =
[ -8.90606201e+01  -8.90595354e+01  -8.90583831e+01  -1.02798177e+01
  -1.02795666e+01  -1.02787121e+01  -1.02779794e+01  -1.02633260e+01
  -1.02627352e+01  -1.02542728e+01  -1.02458028e+01  -1.02417904e+01
  -1.02415414e+01  -1.02412753e+01  -1.02412121e+01  -1.02408890e+01
  -1.02390460e+01  -1.02381662e+01  -1.02341454e+01  -1.02340912e+01
  -1.02335586e+01  -1.02333105e+01  -1.02329675e+01  -8.03794402e+00
  -8.03702281e+00  -8.03602315e+00  -5.97389717e+00  -5.97299821e+00
  -5.97217128e+00  -5.97040139e+00  -5.96952550e+00  -5.96864919e+00
  -5.96809746e+00  -5.96712382e+00  -5.96574683e+00  -9.28646857e-01
  -9.12259214e-01  -8.96660073e-01  -8.84487391e-01  -8.30474129e-01
  -8.06027691e-01  -7.84147162e-01  -7.69589591e-01  -7.62953093e-01
  -7.62471632e-01  -7.55787360e-01  -7.32475458e-01  -7.11360373e-01
  -6.52382805e-01  -6.33589879e-01  -6.25407283e-01  -6.10147616e-01
  -5.84245563e-01  -5.79699737e-01  -5.67644135e-01  -5.50982976e-01
  -5.45172684e-01  -5.36755838e-01  -5.26426280e-01  -5.07883723e-01
  -4.82300819e-01  -4.76818731e-01  -4.60811296e-01  -4.50500730e-01
  -4.35074357e-01  -4.33683953e-01  -4.28564398e-01  -4.25906091e-01
  -4.23130621e-01  -4.17934818e-01  -4.12425043e-01  -4.11491000e-01
  -4.04899006e-01  -3.94410270e-01  -3.89429307e-01  -3.85378707e-01
  -3.79742751e-01  -3.70952322e-01  -3.60584195e-01  -3.58980062e-01
  -3.51045833e-01  -3.48480599e-01  -3.32221704e-01  -3.05111243e-01
  -2.82491586e-01  -2.72778905e-01  -2.72242209e-01  -2.68781484e-01
  -2.58709063e-01  -2.31596459e-01  -2.01968151e-01  -7.35445416e-02
  -5.44661946e-02  -2.06574791e-02  -1.06150491e-02   1.00506834e-02
   1.17242114e-02   1.93218251e-02   2.02971267e-02   3.71198860e-02
   4.98729487e-02   5.45560843e-02   5.74510487e-02   5.84895996e-02
   6.21386617e-02   7.12348327e-02   7.20554125e-02   8.17438568e-02
   8.65598115e-02   9.04297166e-02   9.69507755e-02   9.92755911e-02
   1.03765169e-01   1.11760026e-01   1.15702256e-01   1.19124439e-01
   1.23073165e-01   1.33211552e-01   1.35338210e-01   1.39937649e-01
   1.47928598e-01   1.50247329e-01   1.61291939e-01   1.67019201e-01
   1.73492151e-01   1.82590859e-01   1.86865056e-01   1.90045794e-01
   1.96584027e-01   2.03118630e-01   2.07813531e-01   2.11669620e-01
   2.17689888e-01   2.21101482e-01   2.24295091e-01   2.24506362e-01
   2.28550733e-01   2.31944622e-01   2.33332073e-01   2.35381958e-01
   2.38017918e-01   2.40792970e-01   2.43003530e-01   2.46841500e-01
   2.49998222e-01   2.53973344e-01   2.58213674e-01   2.63348804e-01
   2.68159823e-01   2.70262935e-01   2.74172920e-01   2.78075122e-01
   2.81053623e-01   2.86179640e-01   2.88080528e-01   2.95199511e-01
   3.00747052e-01   3.02770968e-01   3.12585051e-01   3.13640718e-01
   3.15539076e-01   3.18943022e-01   3.23052026e-01   3.30227402e-01
   3.33261382e-01   3.35601498e-01   3.38935760e-01   3.42642043e-01
   3.46861158e-01   3.50505534e-01   3.52068316e-01   3.58663569e-01
   3.65920781e-01   3.66722963e-01   3.70886488e-01   3.76568368e-01
   3.80509180e-01   3.86730224e-01   3.89518571e-01   3.91457440e-01
   3.93409513e-01   3.98421529e-01   4.02702706e-01   4.05192606e-01
   4.06789520e-01   4.09390689e-01   4.11419396e-01   4.14022426e-01
   4.20248550e-01   4.23681944e-01   4.25909913e-01   4.26782809e-01
   4.30109291e-01   4.40548502e-01   4.42889066e-01   4.45493339e-01
   4.50090496e-01   4.52422225e-01   4.58289825e-01   4.61446762e-01
   4.70378169e-01   4.77370895e-01   4.78635409e-01   4.79779766e-01
   4.93081915e-01   4.95945908e-01   5.01222400e-01   5.04831916e-01
   5.13056571e-01   5.15168440e-01   5.17122743e-01   5.19742845e-01
   5.29915104e-01   5.33239588e-01   5.37169254e-01   5.48404850e-01
   5.55495283e-01   5.65882536e-01   5.68506081e-01   5.74472813e-01
   5.86357315e-01   5.89524428e-01   5.93883059e-01   6.01798001e-01
   6.02161052e-01   6.08584215e-01   6.17822794e-01   6.22196695e-01
   6.32417361e-01   6.33763876e-01   6.41400174e-01   6.46247469e-01
   6.53402347e-01   6.55699450e-01   6.62797809e-01   6.67337572e-01
   6.72477869e-01   6.76081715e-01   6.79507071e-01   6.81099828e-01
   6.86924810e-01   6.90991521e-01   6.94864395e-01   7.00527748e-01
   7.05214948e-01   7.05678054e-01   7.11060512e-01   7.16372518e-01
   7.22569303e-01   7.29829410e-01   7.33445608e-01   7.41002554e-01
   7.42918267e-01   7.44258682e-01   7.48206835e-01   7.51532409e-01
   7.65994291e-01   7.68701892e-01   7.76071914e-01   7.83973944e-01
   7.95197950e-01   7.99854408e-01   8.01410882e-01   8.08527507e-01
   8.10107628e-01   8.14888055e-01   8.19668190e-01   8.25619793e-01
   8.35860117e-01   8.44763241e-01   8.51584559e-01   8.59269060e-01
   8.63206034e-01   8.75015325e-01   8.79781728e-01   8.85207916e-01
   8.89934282e-01   9.02485961e-01   9.06743397e-01   9.10229847e-01
   9.24741069e-01   9.31217726e-01   9.34006971e-01   9.37423751e-01
   9.53332363e-01   9.57644622e-01   9.62381056e-01   9.69578010e-01
   9.77360633e-01   9.78527323e-01   9.86398978e-01   9.92209970e-01
   9.97706310e-01   1.00280340e+00   1.01220824e+00   1.01826117e+00
   1.02830538e+00   1.03324976e+00   1.03795608e+00   1.04480173e+00
   1.04988059e+00   1.06019286e+00   1.06346449e+00   1.07441869e+00
   1.07631954e+00   1.08437897e+00   1.08829848e+00   1.09525455e+00
   1.09982241e+00   1.11199776e+00   1.11692894e+00   1.12757279e+00
   1.13807595e+00   1.14332447e+00   1.15564182e+00   1.16704947e+00
   1.17328191e+00   1.18412895e+00   1.19623474e+00   1.20221904e+00
   1.21217798e+00   1.21487785e+00   1.22022594e+00   1.22723381e+00
   1.23182680e+00   1.23793863e+00   1.24758083e+00   1.26359567e+00
   1.26645054e+00   1.27212246e+00   1.27342268e+00   1.28081840e+00
   1.29037517e+00   1.29190070e+00   1.29945616e+00   1.30505418e+00
   1.31523805e+00   1.31718457e+00   1.32241414e+00   1.32870389e+00
   1.33876320e+00   1.34474096e+00   1.35650407e+00   1.36008574e+00
   1.37280907e+00   1.37863629e+00   1.38297437e+00   1.39153243e+00
   1.40415276e+00   1.40924740e+00   1.41962967e+00   1.42616814e+00
   1.43492503e+00   1.44426555e+00   1.44800533e+00   1.45406535e+00
   1.45820441e+00   1.46584312e+00   1.47823609e+00   1.48196130e+00
   1.48979462e+00   1.49059436e+00   1.50399156e+00   1.50680521e+00
   1.50894337e+00   1.51557765e+00   1.51587194e+00   1.52054321e+00
   1.52270981e+00   1.53021837e+00   1.53580563e+00   1.54523603e+00
   1.54796060e+00   1.55171674e+00   1.55755097e+00   1.56760131e+00
   1.57095817e+00   1.57900043e+00   1.58070714e+00   1.58751124e+00
   1.59180879e+00   1.59822020e+00   1.60392299e+00   1.60711663e+00
   1.61195506e+00   1.61511086e+00   1.62356114e+00   1.62686803e+00
   1.63290554e+00   1.63796793e+00   1.64620470e+00   1.64825371e+00
   1.65732839e+00   1.66286449e+00   1.67089162e+00   1.68128552e+00
   1.68937846e+00   1.69548900e+00   1.69916676e+00   1.70423576e+00
   1.70770621e+00   1.71883308e+00   1.72335878e+00   1.73173529e+00
   1.73715846e+00   1.75819137e+00   1.76824759e+00   1.77492662e+00
   1.78340663e+00   1.79215185e+00   1.79258667e+00   1.80266049e+00
   1.81536914e+00   1.81797387e+00   1.82658180e+00   1.83489300e+00
   1.84262001e+00   1.84567957e+00   1.85243358e+00   1.85747552e+00
   1.86362990e+00   1.86579129e+00   1.86984785e+00   1.87544254e+00
   1.88284343e+00   1.88544775e+00   1.89002155e+00   1.89434709e+00
   1.90619099e+00   1.91243279e+00   1.91649423e+00   1.92878332e+00
   1.93977348e+00   1.94274588e+00   1.95550719e+00   1.95995140e+00
   1.97252959e+00   1.97478908e+00   1.98137203e+00   1.98717368e+00
   1.99445040e+00   2.00302235e+00   2.00788275e+00   2.01098803e+00
   2.02209738e+00   2.03297007e+00   2.04535229e+00   2.05463452e+00
   2.06369762e+00   2.07066117e+00   2.07314151e+00   2.08422375e+00
   2.09760719e+00   2.10560897e+00   2.11152929e+00   2.11984553e+00
   2.12718160e+00   2.13451303e+00   2.14404657e+00   2.15035851e+00
   2.15211220e+00   2.15808731e+00   2.16277942e+00   2.18023263e+00
   2.18259654e+00   2.19080111e+00   2.19582575e+00   2.20068644e+00
   2.21917410e+00   2.22164885e+00   2.23739102e+00   2.24458859e+00
   2.25130348e+00   2.25788271e+00   2.26494436e+00   2.27634796e+00
   2.28299724e+00   2.28383655e+00   2.30262436e+00   2.31054831e+00
   2.31397655e+00   2.35679279e+00   2.36816412e+00   2.37953807e+00
   2.41618060e+00   2.44470745e+00   2.46681220e+00   2.46943475e+00
   2.47265469e+00   2.47592396e+00   2.48512184e+00   2.48970332e+00
   2.49260071e+00   2.51086765e+00   2.51301307e+00   2.52234417e+00
   2.53651343e+00   2.53943684e+00   2.54837348e+00   2.55309378e+00
   2.55869536e+00   2.56293376e+00   2.57329878e+00   2.57854853e+00
   2.58947411e+00   2.59488292e+00   2.60721189e+00   2.61113312e+00
   2.61451062e+00   2.61964253e+00   2.63038066e+00   2.63614785e+00
   2.64329679e+00   2.64827265e+00   2.65372004e+00   2.65934015e+00
   2.66347808e+00   2.66681891e+00   2.67599871e+00   2.67835369e+00
   2.68355868e+00   2.69310583e+00   2.70262812e+00   2.71008057e+00
   2.71220928e+00   2.72142617e+00   2.72566083e+00   2.73291221e+00
   2.73707322e+00   2.73916741e+00   2.76033850e+00   2.76160207e+00
   2.76504156e+00   2.76741175e+00   2.77167991e+00   2.77815412e+00
   2.78666246e+00   2.78842585e+00   2.80036851e+00   2.80869790e+00
   2.81520370e+00   2.82446948e+00   2.82655956e+00   2.82943293e+00
   2.83300150e+00   2.83548100e+00   2.84234165e+00   2.84774772e+00
   2.85007893e+00   2.85319015e+00   2.86571471e+00   2.86813352e+00
   2.87987559e+00   2.88569302e+00   2.89523975e+00   2.90248491e+00
   2.91400594e+00   2.92448314e+00   2.93245613e+00   2.93586887e+00
   2.94816251e+00   2.95570984e+00   2.96028054e+00   2.96823705e+00
   2.98007507e+00   2.98493350e+00   2.99752414e+00   3.00347445e+00
   3.01687101e+00   3.03025702e+00   3.03934732e+00   3.04623405e+00
   3.04750220e+00   3.05998402e+00   3.06209833e+00   3.06623012e+00
   3.07468302e+00   3.07858886e+00   3.08554823e+00   3.09004648e+00
   3.09836031e+00   3.10380668e+00   3.11179540e+00   3.11925593e+00
   3.12006877e+00   3.12223922e+00   3.12651618e+00   3.12956451e+00
   3.13603068e+00   3.14065826e+00   3.14523711e+00   3.15036053e+00
   3.15169508e+00   3.15954828e+00   3.16350301e+00   3.16831978e+00
   3.17658291e+00   3.18466117e+00   3.19239514e+00   3.20263592e+00
   3.20796167e+00   3.21529796e+00   3.21566717e+00   3.22444306e+00
   3.23999870e+00   3.24584032e+00   3.24880940e+00   3.25764268e+00
   3.26911322e+00   3.27625128e+00   3.28020524e+00   3.28098590e+00
   3.28648439e+00   3.29555986e+00   3.30085576e+00   3.30361285e+00
   3.31107635e+00   3.31299368e+00   3.31763417e+00   3.32306929e+00
   3.32767108e+00   3.33237365e+00   3.33778094e+00   3.34640196e+00
   3.35027488e+00   3.35472194e+00   3.35890423e+00   3.36696452e+00
   3.37646227e+00   3.38093564e+00   3.38476897e+00   3.39071516e+00
   3.39803661e+00   3.40203380e+00   3.41120270e+00   3.41988980e+00
   3.42430879e+00   3.43385127e+00   3.44410447e+00   3.44974374e+00
   3.45648700e+00   3.45722954e+00   3.46193811e+00   3.46909586e+00
   3.47485857e+00   3.48366006e+00   3.48765793e+00   3.49408020e+00
   3.50478445e+00   3.51167410e+00   3.51900742e+00   3.52284971e+00
   3.53114651e+00   3.54811744e+00   3.55298566e+00   3.55854464e+00
   3.57102693e+00   3.58128617e+00   3.58678824e+00   3.58770198e+00
   3.59402098e+00   3.60091126e+00   3.60825340e+00   3.61266408e+00
   3.61828758e+00   3.62674651e+00   3.64175541e+00   3.64352817e+00
   3.65168387e+00   3.66290877e+00   3.66915114e+00   3.68915947e+00
   3.69404738e+00   3.69720479e+00   3.70329309e+00   3.71823922e+00
   3.72660330e+00   3.74232104e+00   3.74431236e+00   3.75763387e+00
   3.77605742e+00   3.78682437e+00   3.80086593e+00   3.81193735e+00
   3.83526594e+00   3.85078320e+00   3.87157545e+00   3.88685869e+00
   3.88811495e+00   3.90406405e+00   3.92170595e+00   3.92645632e+00
   3.93498638e+00   3.94448803e+00   3.94767917e+00   3.95615638e+00
   3.97550781e+00   4.00563686e+00   4.01284896e+00   4.03366960e+00
   4.03670933e+00   4.05942591e+00   4.06213135e+00   4.09102812e+00
   4.10737574e+00   4.11767944e+00   4.13021032e+00   4.14057444e+00
   4.14764722e+00   4.16829577e+00   4.17317436e+00   4.19011052e+00
   4.19961809e+00   4.20263393e+00   4.22470141e+00   4.23071385e+00
   4.23099567e+00   4.23779224e+00   4.23981409e+00   4.24344994e+00
   4.25913522e+00   4.26506799e+00   4.27151480e+00   4.28514397e+00
   4.29191905e+00   4.31180249e+00   4.32337046e+00   4.34506716e+00
   4.35939498e+00   4.36964602e+00   4.38047332e+00   4.39603088e+00
   4.41142283e+00   4.42535491e+00   4.44759650e+00   4.45520160e+00
   4.47202253e+00   4.47754711e+00   4.51852066e+00   4.54802794e+00
   4.57204676e+00   4.59729245e+00   4.63424444e+00   4.65255290e+00
   4.65834531e+00   4.68013129e+00   4.68859325e+00   4.70117610e+00
   4.72169022e+00   4.72690872e+00   4.73977629e+00   4.74328271e+00
   4.76510382e+00   4.78322938e+00   4.82612472e+00   4.83349203e+00
   4.85303489e+00   4.87153819e+00   4.87297497e+00   4.89881682e+00
   4.93480154e+00   4.94829112e+00   4.95544109e+00   4.99336661e+00
   5.01079869e+00   5.03092429e+00   5.05288291e+00   5.07807999e+00
   5.10374035e+00   5.16062903e+00   5.19798170e+00   5.21676199e+00
   5.28190447e+00   5.28867088e+00   5.30703310e+00   5.38456791e+00
   5.42512516e+00   5.48767260e+00   5.49521228e+00   5.52461962e+00
   5.65245637e+00   5.66553779e+00   5.78096906e+00   8.91176182e+00
   8.94274957e+00   8.95438940e+00   9.45518544e+00   9.46131256e+00
   9.48509871e+00   9.52656918e+00   9.54627189e+00   9.56914662e+00
   2.01234077e+01   2.01808280e+01   2.02892970e+01   2.20436678e+01
   2.21864816e+01   2.22160882e+01   2.24918609e+01   2.25362309e+01
   2.25545458e+01   2.25951719e+01   2.26317578e+01   2.26771277e+01
   2.26845621e+01   2.27236093e+01   2.27771318e+01   2.28231169e+01
   2.28385405e+01   2.28800161e+01   2.29170696e+01   2.29467513e+01
   2.30718157e+01   2.32574463e+01   2.33749640e+01]
nelec by numeric integration = 182.00005068
    CPU time for vxc     59.96 sec, wall time      3.32 sec
    CPU time for df vj and vk    206.16 sec, wall time     11.66 sec
E1 = -6759.89777277  Ecoul = 2939.42295736  Exc = -189.455822777
cycle= 2 E= -1964.08503587421  delta_E= 4.33e-10  |g|= 4.39e-05  |ddm|= 8.51e-05
    CPU time for cycle= 2    270.27 sec, wall time     15.69 sec
  HOMO = -0.201969290434085  LUMO = -0.0735456799353359
  mo_energy =
[ -8.90606200e+01  -8.90595338e+01  -8.90583839e+01  -1.02798158e+01
  -1.02795745e+01  -1.02787196e+01  -1.02779790e+01  -1.02633250e+01
  -1.02627315e+01  -1.02542772e+01  -1.02458010e+01  -1.02417914e+01
  -1.02415428e+01  -1.02412764e+01  -1.02412130e+01  -1.02408920e+01
  -1.02390480e+01  -1.02381648e+01  -1.02341448e+01  -1.02340905e+01
  -1.02335579e+01  -1.02333104e+01  -1.02329670e+01  -8.03794415e+00
  -8.03702142e+00  -8.03602403e+00  -5.97389728e+00  -5.97299680e+00
  -5.97217215e+00  -5.97040151e+00  -5.96952410e+00  -5.96865006e+00
  -5.96809756e+00  -5.96712241e+00  -5.96574769e+00  -9.28648633e-01
  -9.12259961e-01  -8.96661100e-01  -8.84486703e-01  -8.30474716e-01
  -8.06029019e-01  -7.84147930e-01  -7.69589117e-01  -7.62953245e-01
  -7.62472621e-01  -7.55787924e-01  -7.32476085e-01  -7.11361343e-01
  -6.52383071e-01  -6.33591052e-01  -6.25406858e-01  -6.10148341e-01
  -5.84245922e-01  -5.79700105e-01  -5.67645036e-01  -5.50983491e-01
  -5.45173982e-01  -5.36756111e-01  -5.26426222e-01  -5.07884384e-01
  -4.82301272e-01  -4.76818428e-01  -4.60811645e-01  -4.50501010e-01
  -4.35074335e-01  -4.33685052e-01  -4.28564773e-01  -4.25906612e-01
  -4.23131480e-01  -4.17935198e-01  -4.12426011e-01  -4.11491664e-01
  -4.04899935e-01  -3.94409990e-01  -3.89430218e-01  -3.85379249e-01
  -3.79743377e-01  -3.70952424e-01  -3.60583907e-01  -3.58980669e-01
  -3.51046157e-01  -3.48480608e-01  -3.32222106e-01  -3.05112263e-01
  -2.82492125e-01  -2.72779767e-01  -2.72242163e-01  -2.68781044e-01
  -2.58709936e-01  -2.31596733e-01  -2.01969290e-01  -7.35456799e-02
  -5.44662787e-02  -2.06583355e-02  -1.06146679e-02   1.00500940e-02
   1.17231804e-02   1.93219594e-02   2.02969552e-02   3.71194368e-02
   4.98721108e-02   5.45557766e-02   5.74510842e-02   5.84895792e-02
   6.21381740e-02   7.12347238e-02   7.20552063e-02   8.17432801e-02
   8.65595297e-02   9.04297845e-02   9.69505579e-02   9.92751121e-02
   1.03764890e-01   1.11759782e-01   1.15702397e-01   1.19123934e-01
   1.23072848e-01   1.33211249e-01   1.35337856e-01   1.39937380e-01
   1.47928435e-01   1.50247523e-01   1.61291540e-01   1.67018917e-01
   1.73491871e-01   1.82590559e-01   1.86864391e-01   1.90045290e-01
   1.96583760e-01   2.03118549e-01   2.07813237e-01   2.11669263e-01
   2.17689467e-01   2.21101392e-01   2.24294575e-01   2.24506225e-01
   2.28550452e-01   2.31944454e-01   2.33332124e-01   2.35381449e-01
   2.38017542e-01   2.40792790e-01   2.43003148e-01   2.46841145e-01
   2.49998126e-01   2.53972843e-01   2.58213546e-01   2.63348878e-01
   2.68159299e-01   2.70262562e-01   2.74172699e-01   2.78074364e-01
   2.81053527e-01   2.86179251e-01   2.88080508e-01   2.95198829e-01
   3.00746513e-01   3.02770467e-01   3.12584624e-01   3.13640501e-01
   3.15538787e-01   3.18942494e-01   3.23051619e-01   3.30226984e-01
   3.33261113e-01   3.35601076e-01   3.38935318e-01   3.42641684e-01
   3.46860798e-01   3.50505403e-01   3.52068387e-01   3.58663448e-01
   3.65920340e-01   3.66722800e-01   3.70886003e-01   3.76567942e-01
   3.80508714e-01   3.86730122e-01   3.89518554e-01   3.91457173e-01
   3.93409382e-01   3.98421186e-01   4.02702459e-01   4.05192616e-01
   4.06788945e-01   4.09390233e-01   4.11419448e-01   4.14021971e-01
   4.20248545e-01   4.23681784e-01   4.25909543e-01   4.26782793e-01
   4.30109070e-01   4.40548309e-01   4.42888726e-01   4.45492865e-01
   4.50090074e-01   4.52422045e-01   4.58289254e-01   4.61446250e-01
   4.70377831e-01   4.77370598e-01   4.78635382e-01   4.79779426e-01
   4.93081954e-01   4.95945909e-01   5.01222044e-01   5.04831906e-01
   5.13056285e-01   5.15168534e-01   5.17122236e-01   5.19742305e-01
   5.29914820e-01   5.33239133e-01   5.37168849e-01   5.48404465e-01
   5.55494785e-01   5.65882343e-01   5.68505347e-01   5.74472186e-01
   5.86356462e-01   5.89523966e-01   5.93882518e-01   6.01797573e-01
   6.02160617e-01   6.08583566e-01   6.17822122e-01   6.22196443e-01
   6.32416839e-01   6.33763069e-01   6.41399706e-01   6.46246813e-01
   6.53401901e-01   6.55698788e-01   6.62797487e-01   6.67337150e-01
   6.72477495e-01   6.76081509e-01   6.79506631e-01   6.81099401e-01
   6.86924447e-01   6.90991502e-01   6.94863801e-01   7.00527605e-01
   7.05214562e-01   7.05677732e-01   7.11059843e-01   7.16372097e-01
   7.22568891e-01   7.29829009e-01   7.33445253e-01   7.41002173e-01
   7.42917739e-01   7.44258177e-01   7.48207021e-01   7.51531832e-01
   7.65993907e-01   7.68701414e-01   7.76071919e-01   7.83973402e-01
   7.95197527e-01   7.99853898e-01   8.01410664e-01   8.08526933e-01
   8.10107276e-01   8.14887561e-01   8.19668318e-01   8.25619436e-01
   8.35859640e-01   8.44763024e-01   8.51584242e-01   8.59268137e-01
   8.63205848e-01   8.75014602e-01   8.79781264e-01   8.85207780e-01
   8.89933730e-01   9.02485553e-01   9.06743202e-01   9.10229583e-01
   9.24740760e-01   9.31217582e-01   9.34006428e-01   9.37423106e-01
   9.53331742e-01   9.57644304e-01   9.62380512e-01   9.69577857e-01
   9.77359866e-01   9.78526852e-01   9.86398046e-01   9.92209311e-01
   9.97706088e-01   1.00280287e+00   1.01220823e+00   1.01826112e+00
   1.02830508e+00   1.03324927e+00   1.03795595e+00   1.04480118e+00
   1.04988025e+00   1.06019294e+00   1.06346375e+00   1.07441860e+00
   1.07631910e+00   1.08437886e+00   1.08829832e+00   1.09525437e+00
   1.09982211e+00   1.11199703e+00   1.11692847e+00   1.12757202e+00
   1.13807506e+00   1.14332365e+00   1.15564113e+00   1.16704892e+00
   1.17328139e+00   1.18412869e+00   1.19623384e+00   1.20221872e+00
   1.21217738e+00   1.21487768e+00   1.22022595e+00   1.22723360e+00
   1.23182657e+00   1.23793832e+00   1.24758040e+00   1.26359510e+00
   1.26645058e+00   1.27212235e+00   1.27342253e+00   1.28081818e+00
   1.29037489e+00   1.29190003e+00   1.29945569e+00   1.30505381e+00
   1.31523745e+00   1.31718434e+00   1.32241398e+00   1.32870320e+00
   1.33876305e+00   1.34474052e+00   1.35650381e+00   1.36008529e+00
   1.37280862e+00   1.37863516e+00   1.38297357e+00   1.39153165e+00
   1.40415256e+00   1.40924656e+00   1.41962897e+00   1.42616760e+00
   1.43492473e+00   1.44426507e+00   1.44800497e+00   1.45406473e+00
   1.45820404e+00   1.46584271e+00   1.47823580e+00   1.48196138e+00
   1.48979393e+00   1.49059445e+00   1.50399119e+00   1.50680522e+00
   1.50894321e+00   1.51557760e+00   1.51587177e+00   1.52054332e+00
   1.52270990e+00   1.53021826e+00   1.53580528e+00   1.54523545e+00
   1.54796014e+00   1.55171639e+00   1.55755079e+00   1.56760091e+00
   1.57095755e+00   1.57899927e+00   1.58070697e+00   1.58751097e+00
   1.59180882e+00   1.59821998e+00   1.60392276e+00   1.60711650e+00
   1.61195502e+00   1.61511088e+00   1.62356010e+00   1.62686747e+00
   1.63290499e+00   1.63796735e+00   1.64620436e+00   1.64825322e+00
   1.65732849e+00   1.66286363e+00   1.67089119e+00   1.68128543e+00
   1.68937824e+00   1.69548882e+00   1.69916684e+00   1.70423595e+00
   1.70770599e+00   1.71883268e+00   1.72335789e+00   1.73173471e+00
   1.73715839e+00   1.75819162e+00   1.76824710e+00   1.77492605e+00
   1.78340596e+00   1.79215094e+00   1.79258612e+00   1.80265991e+00
   1.81536905e+00   1.81797379e+00   1.82658121e+00   1.83489267e+00
   1.84261980e+00   1.84567881e+00   1.85243329e+00   1.85747520e+00
   1.86362913e+00   1.86579073e+00   1.86984710e+00   1.87544199e+00
   1.88284343e+00   1.88544731e+00   1.89002068e+00   1.89434659e+00
   1.90619034e+00   1.91243233e+00   1.91649301e+00   1.92878289e+00
   1.93977284e+00   1.94274553e+00   1.95550681e+00   1.95995101e+00
   1.97252972e+00   1.97478897e+00   1.98137186e+00   1.98717289e+00
   1.99445100e+00   2.00302198e+00   2.00788230e+00   2.01098797e+00
   2.02209689e+00   2.03296941e+00   2.04535147e+00   2.05463377e+00
   2.06369664e+00   2.07066044e+00   2.07314138e+00   2.08422395e+00
   2.09760581e+00   2.10560895e+00   2.11152904e+00   2.11984453e+00
   2.12718120e+00   2.13451295e+00   2.14404663e+00   2.15035805e+00
   2.15211208e+00   2.15808630e+00   2.16277861e+00   2.18023097e+00
   2.18259572e+00   2.19080046e+00   2.19582464e+00   2.20068600e+00
   2.21917368e+00   2.22164790e+00   2.23739040e+00   2.24458793e+00
   2.25130297e+00   2.25788271e+00   2.26494462e+00   2.27634776e+00
   2.28299638e+00   2.28383557e+00   2.30262345e+00   2.31054828e+00
   2.31397611e+00   2.35679237e+00   2.36816445e+00   2.37953845e+00
   2.41617923e+00   2.44470659e+00   2.46681164e+00   2.46943418e+00
   2.47265455e+00   2.47592406e+00   2.48512169e+00   2.48970318e+00
   2.49260011e+00   2.51086732e+00   2.51301248e+00   2.52234328e+00
   2.53651364e+00   2.53943588e+00   2.54837286e+00   2.55309376e+00
   2.55869525e+00   2.56293344e+00   2.57329812e+00   2.57854789e+00
   2.58947389e+00   2.59488236e+00   2.60721122e+00   2.61113272e+00
   2.61451075e+00   2.61964190e+00   2.63038046e+00   2.63614749e+00
   2.64329620e+00   2.64827243e+00   2.65371957e+00   2.65933979e+00
   2.66347799e+00   2.66681842e+00   2.67599800e+00   2.67835346e+00
   2.68355810e+00   2.69310532e+00   2.70262782e+00   2.71008000e+00
   2.71220889e+00   2.72142597e+00   2.72566041e+00   2.73291199e+00
   2.73707296e+00   2.73916720e+00   2.76033808e+00   2.76160188e+00
   2.76504126e+00   2.76741148e+00   2.77168013e+00   2.77815407e+00
   2.78666216e+00   2.78842633e+00   2.80036734e+00   2.80869757e+00
   2.81520315e+00   2.82446924e+00   2.82655880e+00   2.82943229e+00
   2.83300083e+00   2.83548135e+00   2.84234132e+00   2.84774738e+00
   2.85007862e+00   2.85318983e+00   2.86571421e+00   2.86813261e+00
   2.87987470e+00   2.88569204e+00   2.89523884e+00   2.90248497e+00
   2.91400579e+00   2.92448209e+00   2.93245555e+00   2.93586836e+00
   2.94816182e+00   2.95570940e+00   2.96027981e+00   2.96823638e+00
   2.98007454e+00   2.98493329e+00   2.99752308e+00   3.00347396e+00
   3.01687007e+00   3.03025525e+00   3.03934703e+00   3.04623347e+00
   3.04750205e+00   3.05998359e+00   3.06209749e+00   3.06622958e+00
   3.07468236e+00   3.07858846e+00   3.08554741e+00   3.09004512e+00
   3.09835979e+00   3.10380670e+00   3.11179474e+00   3.11925564e+00
   3.12006828e+00   3.12223893e+00   3.12651591e+00   3.12956485e+00
   3.13603096e+00   3.14065806e+00   3.14523715e+00   3.15036002e+00
   3.15169498e+00   3.15954793e+00   3.16350260e+00   3.16831906e+00
   3.17658257e+00   3.18466071e+00   3.19239487e+00   3.20263589e+00
   3.20796100e+00   3.21529741e+00   3.21566655e+00   3.22444306e+00
   3.23999772e+00   3.24583960e+00   3.24880854e+00   3.25764221e+00
   3.26911235e+00   3.27625032e+00   3.28020511e+00   3.28098548e+00
   3.28648381e+00   3.29555880e+00   3.30085522e+00   3.30361280e+00
   3.31107588e+00   3.31299301e+00   3.31763372e+00   3.32306882e+00
   3.32767070e+00   3.33237231e+00   3.33778044e+00   3.34640050e+00
   3.35027420e+00   3.35472102e+00   3.35890303e+00   3.36696344e+00
   3.37646154e+00   3.38093509e+00   3.38476831e+00   3.39071503e+00
   3.39803656e+00   3.40203356e+00   3.41120285e+00   3.41988968e+00
   3.42430833e+00   3.43385055e+00   3.44410450e+00   3.44974353e+00
   3.45648664e+00   3.45722853e+00   3.46193772e+00   3.46909563e+00
   3.47485812e+00   3.48365954e+00   3.48765735e+00   3.49408003e+00
   3.50478440e+00   3.51167372e+00   3.51900714e+00   3.52284906e+00
   3.53114538e+00   3.54811740e+00   3.55298532e+00   3.55854423e+00
   3.57102645e+00   3.58128499e+00   3.58678657e+00   3.58770151e+00
   3.59402017e+00   3.60091024e+00   3.60825251e+00   3.61266361e+00
   3.61828648e+00   3.62674593e+00   3.64175450e+00   3.64352738e+00
   3.65168287e+00   3.66290823e+00   3.66915065e+00   3.68915911e+00
   3.69404633e+00   3.69720435e+00   3.70329243e+00   3.71823889e+00
   3.72660208e+00   3.74231965e+00   3.74431231e+00   3.75763372e+00
   3.77605687e+00   3.78682367e+00   3.80086561e+00   3.81193659e+00
   3.83526459e+00   3.85078252e+00   3.87157450e+00   3.88685733e+00
   3.88811417e+00   3.90406332e+00   3.92170473e+00   3.92645574e+00
   3.93498613e+00   3.94448780e+00   3.94767926e+00   3.95615528e+00
   3.97550794e+00   4.00563550e+00   4.01284754e+00   4.03366952e+00
   4.03670860e+00   4.05942596e+00   4.06213056e+00   4.09102661e+00
   4.10737513e+00   4.11767839e+00   4.13021033e+00   4.14057330e+00
   4.14764696e+00   4.16829539e+00   4.17317374e+00   4.19011064e+00
   4.19961807e+00   4.20263409e+00   4.22470080e+00   4.23071400e+00
   4.23099496e+00   4.23779135e+00   4.23981393e+00   4.24344934e+00
   4.25913469e+00   4.26506736e+00   4.27151355e+00   4.28514280e+00
   4.29191891e+00   4.31180272e+00   4.32336952e+00   4.34506667e+00
   4.35939539e+00   4.36964598e+00   4.38047249e+00   4.39603027e+00
   4.41142256e+00   4.42535422e+00   4.44759552e+00   4.45520083e+00
   4.47202177e+00   4.47754504e+00   4.51851962e+00   4.54802747e+00
   4.57204480e+00   4.59729080e+00   4.63424414e+00   4.65255099e+00
   4.65834509e+00   4.68013114e+00   4.68859283e+00   4.70117577e+00
   4.72168989e+00   4.72690819e+00   4.73977621e+00   4.74328249e+00
   4.76510396e+00   4.78322710e+00   4.82612370e+00   4.83349087e+00
   4.85303480e+00   4.87153794e+00   4.87297429e+00   4.89881673e+00
   4.93480114e+00   4.94829081e+00   4.95543973e+00   4.99336562e+00
   5.01079815e+00   5.03092401e+00   5.05288190e+00   5.07807962e+00
   5.10374038e+00   5.16062782e+00   5.19798079e+00   5.21676152e+00
   5.28190317e+00   5.28867051e+00   5.30703146e+00   5.38456668e+00
   5.42512552e+00   5.48767244e+00   5.49521132e+00   5.52461958e+00
   5.65245450e+00   5.66553582e+00   5.78096901e+00   8.91176288e+00
   8.94274887e+00   8.95438917e+00   9.45518651e+00   9.46131234e+00
   9.48509879e+00   9.52656976e+00   9.54627108e+00   9.56914597e+00
   2.01234079e+01   2.01808285e+01   2.02892962e+01   2.20436677e+01
   2.21864822e+01   2.22160889e+01   2.24918584e+01   2.25362292e+01
   2.25545452e+01   2.25951727e+01   2.26317581e+01   2.26771269e+01
   2.26845613e+01   2.27236091e+01   2.27771323e+01   2.28231157e+01
   2.28385411e+01   2.28800145e+01   2.29170651e+01   2.29467499e+01
   2.30718158e+01   2.32574470e+01   2.33749594e+01]
nelec by numeric integration = 182.00005068
    CPU time for vxc     62.36 sec, wall time      3.48 sec
    CPU time for df vj and vk    198.82 sec, wall time      9.95 sec
E1 = -6759.89796227  Ecoul = 2939.42314859  Exc = -189.455824513
cycle= 3 E= -1964.08503587474  delta_E= -5.28e-10  |g|= 3e-06  |ddm|= 6.08e-05
    CPU time for cycle= 3    265.36 sec, wall time     14.08 sec
  HOMO = -0.201969323630479  LUMO = -0.0735456827721538
  mo_energy =
[ -8.90606198e+01  -8.90595337e+01  -8.90583836e+01  -1.02798160e+01
  -1.02795741e+01  -1.02787195e+01  -1.02779794e+01  -1.02633250e+01
  -1.02627315e+01  -1.02542774e+01  -1.02458010e+01  -1.02417918e+01
  -1.02415432e+01  -1.02412768e+01  -1.02412132e+01  -1.02408923e+01
  -1.02390481e+01  -1.02381647e+01  -1.02341448e+01  -1.02340905e+01
  -1.02335580e+01  -1.02333105e+01  -1.02329670e+01  -8.03794394e+00
  -8.03702131e+00  -8.03602382e+00  -5.97389707e+00  -5.97299669e+00
  -5.97217194e+00  -5.97040130e+00  -5.96952399e+00  -5.96864985e+00
  -5.96809734e+00  -5.96712230e+00  -5.96574748e+00  -9.28648668e-01
  -9.12260079e-01  -8.96661177e-01  -8.84486734e-01  -8.30474752e-01
  -8.06029046e-01  -7.84147941e-01  -7.69589156e-01  -7.62953377e-01
  -7.62472699e-01  -7.55788009e-01  -7.32476106e-01  -7.11361409e-01
  -6.52383094e-01  -6.33591108e-01  -6.25406883e-01  -6.10148359e-01
  -5.84246011e-01  -5.79700158e-01  -5.67645080e-01  -5.50983577e-01
  -5.45174048e-01  -5.36756223e-01  -5.26426239e-01  -5.07884411e-01
  -4.82301341e-01  -4.76818425e-01  -4.60811706e-01  -4.50501023e-01
  -4.35074362e-01  -4.33685080e-01  -4.28564832e-01  -4.25906692e-01
  -4.23131575e-01  -4.17935328e-01  -4.12426106e-01  -4.11491752e-01
  -4.04899991e-01  -3.94410018e-01  -3.89430238e-01  -3.85379296e-01
  -3.79743417e-01  -3.70952417e-01  -3.60583921e-01  -3.58980638e-01
  -3.51046151e-01  -3.48480617e-01  -3.32222127e-01  -3.05112285e-01
  -2.82492131e-01  -2.72779801e-01  -2.72242248e-01  -2.68781077e-01
  -2.58709994e-01  -2.31596786e-01  -2.01969324e-01  -7.35456828e-02
  -5.44663461e-02  -2.06583576e-02  -1.06146855e-02   1.00500674e-02
   1.17231998e-02   1.93219633e-02   2.02969522e-02   3.71194251e-02
   4.98720664e-02   5.45557371e-02   5.74510573e-02   5.84895801e-02
   6.21380994e-02   7.12346846e-02   7.20551880e-02   8.17432674e-02
   8.65595146e-02   9.04297772e-02   9.69505559e-02   9.92750995e-02
   1.03764882e-01   1.11759770e-01   1.15702402e-01   1.19123931e-01
   1.23072815e-01   1.33211229e-01   1.35337834e-01   1.39937384e-01
   1.47928432e-01   1.50247513e-01   1.61291544e-01   1.67018904e-01
   1.73491847e-01   1.82590552e-01   1.86864384e-01   1.90045271e-01
   1.96583718e-01   2.03118519e-01   2.07813199e-01   2.11669223e-01
   2.17689426e-01   2.21101377e-01   2.24294555e-01   2.24506213e-01
   2.28550422e-01   2.31944446e-01   2.33332121e-01   2.35381424e-01
   2.38017521e-01   2.40792774e-01   2.43003120e-01   2.46841135e-01
   2.49998095e-01   2.53972828e-01   2.58213543e-01   2.63348866e-01
   2.68159289e-01   2.70262549e-01   2.74172643e-01   2.78074349e-01
   2.81053506e-01   2.86179231e-01   2.88080496e-01   2.95198814e-01
   3.00746502e-01   3.02770455e-01   3.12584607e-01   3.13640481e-01
   3.15538744e-01   3.18942485e-01   3.23051595e-01   3.30226985e-01
   3.33261071e-01   3.35601036e-01   3.38935302e-01   3.42641634e-01
   3.46860785e-01   3.50505388e-01   3.52068379e-01   3.58663413e-01
   3.65920306e-01   3.66722800e-01   3.70885967e-01   3.76567916e-01
   3.80508682e-01   3.86730087e-01   3.89518546e-01   3.91457163e-01
   3.93409380e-01   3.98421156e-01   4.02702414e-01   4.05192598e-01
   4.06788928e-01   4.09390215e-01   4.11419434e-01   4.14021944e-01
   4.20248527e-01   4.23681771e-01   4.25909506e-01   4.26782771e-01
   4.30109032e-01   4.40548293e-01   4.42888706e-01   4.45492838e-01
   4.50090075e-01   4.52421993e-01   4.58289242e-01   4.61446228e-01
   4.70377820e-01   4.77370592e-01   4.78635374e-01   4.79779407e-01
   4.93081934e-01   4.95945896e-01   5.01222032e-01   5.04831889e-01
   5.13056271e-01   5.15168519e-01   5.17122202e-01   5.19742301e-01
   5.29914789e-01   5.33239086e-01   5.37168815e-01   5.48404435e-01
   5.55494770e-01   5.65882333e-01   5.68505317e-01   5.74472183e-01
   5.86356448e-01   5.89523922e-01   5.93882515e-01   6.01797532e-01
   6.02160605e-01   6.08583518e-01   6.17822120e-01   6.22196419e-01
   6.32416795e-01   6.33763004e-01   6.41399647e-01   6.46246778e-01
   6.53401845e-01   6.55698773e-01   6.62797466e-01   6.67337135e-01
   6.72477471e-01   6.76081496e-01   6.79506619e-01   6.81099374e-01
   6.86924424e-01   6.90991482e-01   6.94863780e-01   7.00527589e-01
   7.05214552e-01   7.05677709e-01   7.11059806e-01   7.16372068e-01
   7.22568866e-01   7.29828999e-01   7.33445200e-01   7.41002153e-01
   7.42917723e-01   7.44258159e-01   7.48206998e-01   7.51531824e-01
   7.65993893e-01   7.68701401e-01   7.76071914e-01   7.83973368e-01
   7.95197497e-01   7.99853889e-01   8.01410635e-01   8.08526915e-01
   8.10107249e-01   8.14887557e-01   8.19668265e-01   8.25619410e-01
   8.35859621e-01   8.44763011e-01   8.51584196e-01   8.59268118e-01
   8.63205808e-01   8.75014599e-01   8.79781261e-01   8.85207772e-01
   8.89933721e-01   9.02485547e-01   9.06743188e-01   9.10229529e-01
   9.24740729e-01   9.31217522e-01   9.34006410e-01   9.37423054e-01
   9.53331699e-01   9.57644237e-01   9.62380460e-01   9.69577821e-01
   9.77359844e-01   9.78526791e-01   9.86398020e-01   9.92209272e-01
   9.97706035e-01   1.00280284e+00   1.01220820e+00   1.01826110e+00
   1.02830502e+00   1.03324924e+00   1.03795592e+00   1.04480112e+00
   1.04988021e+00   1.06019292e+00   1.06346373e+00   1.07441853e+00
   1.07631905e+00   1.08437882e+00   1.08829828e+00   1.09525431e+00
   1.09982205e+00   1.11199703e+00   1.11692842e+00   1.12757199e+00
   1.13807501e+00   1.14332360e+00   1.15564107e+00   1.16704886e+00
   1.17328137e+00   1.18412866e+00   1.19623383e+00   1.20221869e+00
   1.21217735e+00   1.21487766e+00   1.22022592e+00   1.22723358e+00
   1.23182652e+00   1.23793831e+00   1.24758037e+00   1.26359504e+00
   1.26645055e+00   1.27212232e+00   1.27342246e+00   1.28081813e+00
   1.29037484e+00   1.29189996e+00   1.29945565e+00   1.30505375e+00
   1.31523741e+00   1.31718428e+00   1.32241396e+00   1.32870317e+00
   1.33876298e+00   1.34474048e+00   1.35650378e+00   1.36008524e+00
   1.37280855e+00   1.37863514e+00   1.38297353e+00   1.39153158e+00
   1.40415254e+00   1.40924651e+00   1.41962896e+00   1.42616759e+00
   1.43492472e+00   1.44426500e+00   1.44800491e+00   1.45406467e+00
   1.45820403e+00   1.46584266e+00   1.47823576e+00   1.48196136e+00
   1.48979390e+00   1.49059445e+00   1.50399117e+00   1.50680519e+00
   1.50894319e+00   1.51557757e+00   1.51587173e+00   1.52054330e+00
   1.52270986e+00   1.53021826e+00   1.53580525e+00   1.54523546e+00
   1.54796016e+00   1.55171632e+00   1.55755079e+00   1.56760090e+00
   1.57095757e+00   1.57899930e+00   1.58070695e+00   1.58751097e+00
   1.59180882e+00   1.59821998e+00   1.60392277e+00   1.60711650e+00
   1.61195502e+00   1.61511089e+00   1.62356017e+00   1.62686747e+00
   1.63290501e+00   1.63796736e+00   1.64620434e+00   1.64825320e+00
   1.65732841e+00   1.66286364e+00   1.67089118e+00   1.68128542e+00
   1.68937823e+00   1.69548882e+00   1.69916684e+00   1.70423592e+00
   1.70770598e+00   1.71883266e+00   1.72335785e+00   1.73173468e+00
   1.73715834e+00   1.75819159e+00   1.76824706e+00   1.77492601e+00
   1.78340589e+00   1.79215091e+00   1.79258607e+00   1.80265991e+00
   1.81536906e+00   1.81797381e+00   1.82658121e+00   1.83489265e+00
   1.84261979e+00   1.84567884e+00   1.85243327e+00   1.85747519e+00
   1.86362915e+00   1.86579076e+00   1.86984712e+00   1.87544201e+00
   1.88284336e+00   1.88544729e+00   1.89002067e+00   1.89434659e+00
   1.90619035e+00   1.91243233e+00   1.91649303e+00   1.92878288e+00
   1.93977281e+00   1.94274547e+00   1.95550677e+00   1.95995099e+00
   1.97252968e+00   1.97478896e+00   1.98137183e+00   1.98717289e+00
   1.99445101e+00   2.00302194e+00   2.00788228e+00   2.01098800e+00
   2.02209684e+00   2.03296938e+00   2.04535145e+00   2.05463373e+00
   2.06369664e+00   2.07066042e+00   2.07314136e+00   2.08422394e+00
   2.09760583e+00   2.10560884e+00   2.11152901e+00   2.11984450e+00
   2.12718119e+00   2.13451290e+00   2.14404657e+00   2.15035799e+00
   2.15211201e+00   2.15808626e+00   2.16277854e+00   2.18023097e+00
   2.18259567e+00   2.19080041e+00   2.19582463e+00   2.20068594e+00
   2.21917362e+00   2.22164787e+00   2.23739034e+00   2.24458792e+00
   2.25130294e+00   2.25788270e+00   2.26494459e+00   2.27634774e+00
   2.28299637e+00   2.28383554e+00   2.30262344e+00   2.31054820e+00
   2.31397609e+00   2.35679235e+00   2.36816445e+00   2.37953842e+00
   2.41617924e+00   2.44470656e+00   2.46681153e+00   2.46943415e+00
   2.47265449e+00   2.47592401e+00   2.48512165e+00   2.48970305e+00
   2.49260005e+00   2.51086726e+00   2.51301243e+00   2.52234322e+00
   2.53651360e+00   2.53943580e+00   2.54837281e+00   2.55309367e+00
   2.55869521e+00   2.56293335e+00   2.57329808e+00   2.57854785e+00
   2.58947385e+00   2.59488229e+00   2.60721118e+00   2.61113265e+00
   2.61451072e+00   2.61964187e+00   2.63038041e+00   2.63614739e+00
   2.64329611e+00   2.64827237e+00   2.65371947e+00   2.65933976e+00
   2.66347794e+00   2.66681837e+00   2.67599794e+00   2.67835338e+00
   2.68355806e+00   2.69310524e+00   2.70262777e+00   2.71007989e+00
   2.71220885e+00   2.72142593e+00   2.72566034e+00   2.73291194e+00
   2.73707292e+00   2.73916711e+00   2.76033804e+00   2.76160181e+00
   2.76504121e+00   2.76741136e+00   2.77168011e+00   2.77815403e+00
   2.78666211e+00   2.78842630e+00   2.80036728e+00   2.80869751e+00
   2.81520308e+00   2.82446922e+00   2.82655875e+00   2.82943223e+00
   2.83300078e+00   2.83548133e+00   2.84234124e+00   2.84774730e+00
   2.85007855e+00   2.85318979e+00   2.86571416e+00   2.86813256e+00
   2.87987467e+00   2.88569199e+00   2.89523879e+00   2.90248496e+00
   2.91400575e+00   2.92448206e+00   2.93245550e+00   2.93586832e+00
   2.94816177e+00   2.95570936e+00   2.96027977e+00   2.96823632e+00
   2.98007448e+00   2.98493320e+00   2.99752304e+00   3.00347384e+00
   3.01686999e+00   3.03025519e+00   3.03934695e+00   3.04623340e+00
   3.04750201e+00   3.05998352e+00   3.06209742e+00   3.06622950e+00
   3.07468227e+00   3.07858836e+00   3.08554733e+00   3.09004507e+00
   3.09835971e+00   3.10380662e+00   3.11179469e+00   3.11925554e+00
   3.12006823e+00   3.12223889e+00   3.12651585e+00   3.12956482e+00
   3.13603090e+00   3.14065801e+00   3.14523707e+00   3.15035994e+00
   3.15169493e+00   3.15954792e+00   3.16350255e+00   3.16831900e+00
   3.17658251e+00   3.18466066e+00   3.19239484e+00   3.20263586e+00
   3.20796097e+00   3.21529737e+00   3.21566650e+00   3.22444305e+00
   3.23999771e+00   3.24583958e+00   3.24880846e+00   3.25764212e+00
   3.26911229e+00   3.27625025e+00   3.28020507e+00   3.28098539e+00
   3.28648372e+00   3.29555875e+00   3.30085516e+00   3.30361273e+00
   3.31107580e+00   3.31299295e+00   3.31763367e+00   3.32306873e+00
   3.32767064e+00   3.33237226e+00   3.33778037e+00   3.34640045e+00
   3.35027413e+00   3.35472094e+00   3.35890296e+00   3.36696339e+00
   3.37646145e+00   3.38093502e+00   3.38476827e+00   3.39071500e+00
   3.39803651e+00   3.40203347e+00   3.41120282e+00   3.41988964e+00
   3.42430827e+00   3.43385049e+00   3.44410443e+00   3.44974342e+00
   3.45648657e+00   3.45722847e+00   3.46193765e+00   3.46909559e+00
   3.47485805e+00   3.48365950e+00   3.48765731e+00   3.49408000e+00
   3.50478435e+00   3.51167368e+00   3.51900705e+00   3.52284903e+00
   3.53114533e+00   3.54811736e+00   3.55298526e+00   3.55854420e+00
   3.57102638e+00   3.58128495e+00   3.58678648e+00   3.58770144e+00
   3.59402005e+00   3.60091018e+00   3.60825246e+00   3.61266352e+00
   3.61828643e+00   3.62674589e+00   3.64175444e+00   3.64352735e+00
   3.65168281e+00   3.66290820e+00   3.66915053e+00   3.68915906e+00
   3.69404628e+00   3.69720428e+00   3.70329236e+00   3.71823886e+00
   3.72660209e+00   3.74231962e+00   3.74431229e+00   3.75763370e+00
   3.77605685e+00   3.78682365e+00   3.80086556e+00   3.81193654e+00
   3.83526455e+00   3.85078245e+00   3.87157440e+00   3.88685725e+00
   3.88811415e+00   3.90406327e+00   3.92170472e+00   3.92645565e+00
   3.93498603e+00   3.94448772e+00   3.94767920e+00   3.95615521e+00
   3.97550789e+00   4.00563543e+00   4.01284749e+00   4.03366948e+00
   4.03670852e+00   4.05942591e+00   4.06213052e+00   4.09102657e+00
   4.10737508e+00   4.11767833e+00   4.13021029e+00   4.14057321e+00
   4.14764692e+00   4.16829530e+00   4.17317366e+00   4.19011058e+00
   4.19961803e+00   4.20263405e+00   4.22470068e+00   4.23071391e+00
   4.23099483e+00   4.23779125e+00   4.23981384e+00   4.24344923e+00
   4.25913461e+00   4.26506725e+00   4.27151347e+00   4.28514272e+00
   4.29191885e+00   4.31180269e+00   4.32336946e+00   4.34506655e+00
   4.35939535e+00   4.36964583e+00   4.38047238e+00   4.39603017e+00
   4.41142245e+00   4.42535416e+00   4.44759545e+00   4.45520074e+00
   4.47202164e+00   4.47754497e+00   4.51851956e+00   4.54802744e+00
   4.57204475e+00   4.59729072e+00   4.63424405e+00   4.65255097e+00
   4.65834495e+00   4.68013107e+00   4.68859276e+00   4.70117569e+00
   4.72168978e+00   4.72690814e+00   4.73977610e+00   4.74328239e+00
   4.76510395e+00   4.78322707e+00   4.82612357e+00   4.83349069e+00
   4.85303474e+00   4.87153784e+00   4.87297421e+00   4.89881663e+00
   4.93480106e+00   4.94829073e+00   4.95543961e+00   4.99336550e+00
   5.01079805e+00   5.03092387e+00   5.05288178e+00   5.07807953e+00
   5.10374037e+00   5.16062774e+00   5.19798072e+00   5.21676151e+00
   5.28190308e+00   5.28867044e+00   5.30703143e+00   5.38456657e+00
   5.42512549e+00   5.48767242e+00   5.49521125e+00   5.52461953e+00
   5.65245446e+00   5.66553579e+00   5.78096898e+00   8.91176298e+00
   8.94274904e+00   8.95438936e+00   9.45518660e+00   9.46131252e+00
   9.48509894e+00   9.52656988e+00   9.54627125e+00   9.56914614e+00
   2.01234080e+01   2.01808287e+01   2.02892963e+01   2.20436676e+01
   2.21864821e+01   2.22160888e+01   2.24918583e+01   2.25362292e+01
   2.25545449e+01   2.25951727e+01   2.26317580e+01   2.26771266e+01
   2.26845610e+01   2.27236090e+01   2.27771322e+01   2.28231156e+01
   2.28385411e+01   2.28800143e+01   2.29170651e+01   2.29467499e+01
   2.30718155e+01   2.32574470e+01   2.33749594e+01]
nelec by numeric integration = 182.00005068
    CPU time for vxc     59.78 sec, wall time      3.30 sec
    CPU time for df vj and vk    201.50 sec, wall time     10.73 sec
E1 = -6759.89796556  Ecoul = 2939.42315238  Exc = -189.455825006
cycle= 4 E= -1964.08503587474  delta_E= -9.09e-13  |g|= 3.08e-07  |ddm|= 3.83e-06
    CPU time for cycle= 4    265.43 sec, wall time     14.70 sec
  HOMO = -0.201969331178719  LUMO = -0.073545687664214
  mo_energy =
[ -8.90606199e+01  -8.90595338e+01  -8.90583835e+01  -1.02798159e+01
  -1.02795741e+01  -1.02787196e+01  -1.02779794e+01  -1.02633252e+01
  -1.02627316e+01  -1.02542775e+01  -1.02458010e+01  -1.02417918e+01
  -1.02415432e+01  -1.02412767e+01  -1.02412132e+01  -1.02408923e+01
  -1.02390481e+01  -1.02381647e+01  -1.02341448e+01  -1.02340906e+01
  -1.02335580e+01  -1.02333106e+01  -1.02329670e+01  -8.03794403e+00
  -8.03702140e+00  -8.03602376e+00  -5.97389715e+00  -5.97299678e+00
  -5.97217187e+00  -5.97040138e+00  -5.96952408e+00  -5.96864978e+00
  -5.96809743e+00  -5.96712239e+00  -5.96574741e+00  -9.28648661e-01
  -9.12260103e-01  -8.96661193e-01  -8.84486776e-01  -8.30474753e-01
  -8.06029049e-01  -7.84147952e-01  -7.69589193e-01  -7.62953387e-01
  -7.62472718e-01  -7.55788020e-01  -7.32476103e-01  -7.11361419e-01
  -6.52383106e-01  -6.33591104e-01  -6.25406908e-01  -6.10148375e-01
  -5.84246020e-01  -5.79700173e-01  -5.67645088e-01  -5.50983571e-01
  -5.45174051e-01  -5.36756214e-01  -5.26426255e-01  -5.07884416e-01
  -4.82301352e-01  -4.76818440e-01  -4.60811727e-01  -4.50501038e-01
  -4.35074386e-01  -4.33685081e-01  -4.28564844e-01  -4.25906690e-01
  -4.23131577e-01  -4.17935328e-01  -4.12426108e-01  -4.11491757e-01
  -4.04899996e-01  -3.94410049e-01  -3.89430250e-01  -3.85379310e-01
  -3.79743422e-01  -3.70952430e-01  -3.60583947e-01  -3.58980667e-01
  -3.51046155e-01  -3.48480627e-01  -3.32222129e-01  -3.05112292e-01
  -2.82492132e-01  -2.72779821e-01  -2.72242260e-01  -2.68781112e-01
  -2.58710002e-01  -2.31596789e-01  -2.01969331e-01  -7.35456877e-02
  -5.44663495e-02  -2.06583783e-02  -1.06147150e-02   1.00500589e-02
   1.17232288e-02   1.93219382e-02   2.02969315e-02   3.71194108e-02
   4.98720649e-02   5.45557380e-02   5.74510545e-02   5.84895690e-02
   6.21381120e-02   7.12346846e-02   7.20551807e-02   8.17432594e-02
   8.65595213e-02   9.04297667e-02   9.69505522e-02   9.92750995e-02
   1.03764880e-01   1.11759769e-01   1.15702393e-01   1.19123921e-01
   1.23072816e-01   1.33211230e-01   1.35337830e-01   1.39937366e-01
   1.47928421e-01   1.50247494e-01   1.61291540e-01   1.67018901e-01
   1.73491849e-01   1.82590545e-01   1.86864380e-01   1.90045265e-01
   1.96583718e-01   2.03118515e-01   2.07813200e-01   2.11669227e-01
   2.17689425e-01   2.21101367e-01   2.24294548e-01   2.24506202e-01
   2.28550419e-01   2.31944437e-01   2.33332110e-01   2.35381419e-01
   2.38017512e-01   2.40792768e-01   2.43003122e-01   2.46841123e-01
   2.49998092e-01   2.53972825e-01   2.58213529e-01   2.63348855e-01
   2.68159280e-01   2.70262541e-01   2.74172643e-01   2.78074342e-01
   2.81053496e-01   2.86179229e-01   2.88080485e-01   2.95198812e-01
   3.00746496e-01   3.02770449e-01   3.12584600e-01   3.13640471e-01
   3.15538743e-01   3.18942476e-01   3.23051595e-01   3.30226975e-01
   3.33261066e-01   3.35601035e-01   3.38935291e-01   3.42641633e-01
   3.46860780e-01   3.50505383e-01   3.52068367e-01   3.58663405e-01
   3.65920305e-01   3.66722785e-01   3.70885965e-01   3.76567912e-01
   3.80508677e-01   3.86730080e-01   3.89518534e-01   3.91457152e-01
   3.93409365e-01   3.98421153e-01   4.02702412e-01   4.05192588e-01
   4.06788918e-01   4.09390211e-01   4.11419418e-01   4.14021947e-01
   4.20248519e-01   4.23681765e-01   4.25909513e-01   4.26782764e-01
   4.30109035e-01   4.40548291e-01   4.42888708e-01   4.45492835e-01
   4.50090067e-01   4.52421995e-01   4.58289235e-01   4.61446227e-01
   4.70377819e-01   4.77370584e-01   4.78635363e-01   4.79779396e-01
   4.93081926e-01   4.95945883e-01   5.01222023e-01   5.04831874e-01
   5.13056258e-01   5.15168507e-01   5.17122199e-01   5.19742293e-01
   5.29914782e-01   5.33239085e-01   5.37168818e-01   5.48404428e-01
   5.55494759e-01   5.65882326e-01   5.68505322e-01   5.74472170e-01
   5.86356445e-01   5.89523918e-01   5.93882507e-01   6.01797530e-01
   6.02160594e-01   6.08583520e-01   6.17822119e-01   6.22196408e-01
   6.32416789e-01   6.33763003e-01   6.41399642e-01   6.46246775e-01
   6.53401846e-01   6.55698765e-01   6.62797455e-01   6.67337125e-01
   6.72477479e-01   6.76081487e-01   6.79506614e-01   6.81099368e-01
   6.86924416e-01   6.90991466e-01   6.94863773e-01   7.00527572e-01
   7.05214544e-01   7.05677698e-01   7.11059801e-01   7.16372064e-01
   7.22568859e-01   7.29828991e-01   7.33445198e-01   7.41002150e-01
   7.42917719e-01   7.44258151e-01   7.48206973e-01   7.51531824e-01
   7.65993887e-01   7.68701392e-01   7.76071901e-01   7.83973367e-01
   7.95197490e-01   7.99853884e-01   8.01410626e-01   8.08526902e-01
   8.10107236e-01   8.14887550e-01   8.19668252e-01   8.25619404e-01
   8.35859611e-01   8.44763005e-01   8.51584197e-01   8.59268110e-01
   8.63205802e-01   8.75014599e-01   8.79781246e-01   8.85207756e-01
   8.89933710e-01   9.02485537e-01   9.06743174e-01   9.10229522e-01
   9.24740719e-01   9.31217516e-01   9.34006402e-01   9.37423055e-01
   9.53331703e-01   9.57644232e-01   9.62380458e-01   9.69577816e-01
   9.77359836e-01   9.78526791e-01   9.86398012e-01   9.92209271e-01
   9.97706029e-01   1.00280283e+00   1.01220819e+00   1.01826109e+00
   1.02830501e+00   1.03324923e+00   1.03795591e+00   1.04480112e+00
   1.04988021e+00   1.06019290e+00   1.06346372e+00   1.07441852e+00
   1.07631904e+00   1.08437881e+00   1.08829827e+00   1.09525431e+00
   1.09982204e+00   1.11199701e+00   1.11692842e+00   1.12757199e+00
   1.13807501e+00   1.14332360e+00   1.15564107e+00   1.16704886e+00
   1.17328136e+00   1.18412865e+00   1.19623382e+00   1.20221868e+00
   1.21217735e+00   1.21487765e+00   1.22022590e+00   1.22723357e+00
   1.23182651e+00   1.23793829e+00   1.24758036e+00   1.26359504e+00
   1.26645054e+00   1.27212231e+00   1.27342246e+00   1.28081812e+00
   1.29037485e+00   1.29189996e+00   1.29945565e+00   1.30505374e+00
   1.31523741e+00   1.31718429e+00   1.32241394e+00   1.32870316e+00
   1.33876298e+00   1.34474048e+00   1.35650377e+00   1.36008524e+00
   1.37280856e+00   1.37863514e+00   1.38297354e+00   1.39153158e+00
   1.40415252e+00   1.40924652e+00   1.41962895e+00   1.42616758e+00
   1.43492470e+00   1.44426499e+00   1.44800491e+00   1.45406466e+00
   1.45820402e+00   1.46584266e+00   1.47823575e+00   1.48196134e+00
   1.48979388e+00   1.49059443e+00   1.50399116e+00   1.50680517e+00
   1.50894317e+00   1.51557755e+00   1.51587172e+00   1.52054327e+00
   1.52270985e+00   1.53021824e+00   1.53580523e+00   1.54523546e+00
   1.54796015e+00   1.55171632e+00   1.55755077e+00   1.56760089e+00
   1.57095756e+00   1.57899930e+00   1.58070693e+00   1.58751096e+00
   1.59180881e+00   1.59821997e+00   1.60392275e+00   1.60711648e+00
   1.61195501e+00   1.61511087e+00   1.62356016e+00   1.62686746e+00
   1.63290500e+00   1.63796736e+00   1.64620433e+00   1.64825320e+00
   1.65732840e+00   1.66286363e+00   1.67089117e+00   1.68128540e+00
   1.68937822e+00   1.69548880e+00   1.69916682e+00   1.70423591e+00
   1.70770597e+00   1.71883266e+00   1.72335786e+00   1.73173468e+00
   1.73715834e+00   1.75819159e+00   1.76824705e+00   1.77492601e+00
   1.78340589e+00   1.79215090e+00   1.79258606e+00   1.80265989e+00
   1.81536904e+00   1.81797379e+00   1.82658120e+00   1.83489264e+00
   1.84261979e+00   1.84567882e+00   1.85243326e+00   1.85747518e+00
   1.86362915e+00   1.86579077e+00   1.86984711e+00   1.87544200e+00
   1.88284336e+00   1.88544728e+00   1.89002066e+00   1.89434659e+00
   1.90619035e+00   1.91243232e+00   1.91649302e+00   1.92878286e+00
   1.93977281e+00   1.94274547e+00   1.95550676e+00   1.95995099e+00
   1.97252968e+00   1.97478895e+00   1.98137182e+00   1.98717288e+00
   1.99445097e+00   2.00302195e+00   2.00788228e+00   2.01098797e+00
   2.02209683e+00   2.03296938e+00   2.04535144e+00   2.05463373e+00
   2.06369663e+00   2.07066042e+00   2.07314135e+00   2.08422392e+00
   2.09760583e+00   2.10560884e+00   2.11152899e+00   2.11984449e+00
   2.12718117e+00   2.13451289e+00   2.14404656e+00   2.15035799e+00
   2.15211199e+00   2.15808625e+00   2.16277854e+00   2.18023095e+00
   2.18259566e+00   2.19080042e+00   2.19582463e+00   2.20068593e+00
   2.21917362e+00   2.22164787e+00   2.23739034e+00   2.24458791e+00
   2.25130294e+00   2.25788268e+00   2.26494455e+00   2.27634772e+00
   2.28299636e+00   2.28383555e+00   2.30262342e+00   2.31054820e+00
   2.31397608e+00   2.35679234e+00   2.36816443e+00   2.37953839e+00
   2.41617922e+00   2.44470656e+00   2.46681154e+00   2.46943413e+00
   2.47265448e+00   2.47592399e+00   2.48512163e+00   2.48970306e+00
   2.49260004e+00   2.51086725e+00   2.51301242e+00   2.52234321e+00
   2.53651358e+00   2.53943580e+00   2.54837280e+00   2.55309366e+00
   2.55869520e+00   2.56293334e+00   2.57329807e+00   2.57854783e+00
   2.58947383e+00   2.59488229e+00   2.60721117e+00   2.61113265e+00
   2.61451071e+00   2.61964186e+00   2.63038040e+00   2.63614738e+00
   2.64329611e+00   2.64827236e+00   2.65371948e+00   2.65933974e+00
   2.66347793e+00   2.66681835e+00   2.67599794e+00   2.67835338e+00
   2.68355805e+00   2.69310524e+00   2.70262776e+00   2.71007990e+00
   2.71220883e+00   2.72142592e+00   2.72566034e+00   2.73291193e+00
   2.73707291e+00   2.73916712e+00   2.76033803e+00   2.76160180e+00
   2.76504121e+00   2.76741136e+00   2.77168008e+00   2.77815401e+00
   2.78666210e+00   2.78842626e+00   2.80036726e+00   2.80869750e+00
   2.81520307e+00   2.82446920e+00   2.82655874e+00   2.82943222e+00
   2.83300077e+00   2.83548131e+00   2.84234123e+00   2.84774729e+00
   2.85007854e+00   2.85318978e+00   2.86571416e+00   2.86813255e+00
   2.87987466e+00   2.88569199e+00   2.89523878e+00   2.90248494e+00
   2.91400574e+00   2.92448205e+00   2.93245549e+00   2.93586831e+00
   2.94816178e+00   2.95570935e+00   2.96027976e+00   2.96823632e+00
   2.98007447e+00   2.98493319e+00   2.99752304e+00   3.00347384e+00
   3.01686999e+00   3.03025519e+00   3.03934695e+00   3.04623340e+00
   3.04750201e+00   3.05998352e+00   3.06209742e+00   3.06622950e+00
   3.07468228e+00   3.07858836e+00   3.08554733e+00   3.09004507e+00
   3.09835970e+00   3.10380661e+00   3.11179467e+00   3.11925553e+00
   3.12006823e+00   3.12223887e+00   3.12651584e+00   3.12956479e+00
   3.13603088e+00   3.14065799e+00   3.14523705e+00   3.15035992e+00
   3.15169491e+00   3.15954790e+00   3.16350254e+00   3.16831899e+00
   3.17658251e+00   3.18466064e+00   3.19239482e+00   3.20263584e+00
   3.20796096e+00   3.21529736e+00   3.21566650e+00   3.22444303e+00
   3.23999770e+00   3.24583957e+00   3.24880846e+00   3.25764213e+00
   3.26911229e+00   3.27625024e+00   3.28020506e+00   3.28098538e+00
   3.28648371e+00   3.29555874e+00   3.30085515e+00   3.30361273e+00
   3.31107580e+00   3.31299294e+00   3.31763365e+00   3.32306873e+00
   3.32767062e+00   3.33237225e+00   3.33778036e+00   3.34640044e+00
   3.35027413e+00   3.35472094e+00   3.35890296e+00   3.36696339e+00
   3.37646145e+00   3.38093501e+00   3.38476825e+00   3.39071497e+00
   3.39803649e+00   3.40203346e+00   3.41120280e+00   3.41988962e+00
   3.42430825e+00   3.43385048e+00   3.44410441e+00   3.44974341e+00
   3.45648656e+00   3.45722846e+00   3.46193763e+00   3.46909557e+00
   3.47485804e+00   3.48365949e+00   3.48765730e+00   3.49407998e+00
   3.50478434e+00   3.51167366e+00   3.51900703e+00   3.52284902e+00
   3.53114532e+00   3.54811734e+00   3.55298525e+00   3.55854418e+00
   3.57102638e+00   3.58128494e+00   3.58678648e+00   3.58770143e+00
   3.59402006e+00   3.60091018e+00   3.60825246e+00   3.61266352e+00
   3.61828642e+00   3.62674588e+00   3.64175444e+00   3.64352733e+00
   3.65168281e+00   3.66290818e+00   3.66915055e+00   3.68915905e+00
   3.69404628e+00   3.69720428e+00   3.70329236e+00   3.71823885e+00
   3.72660207e+00   3.74231961e+00   3.74431227e+00   3.75763368e+00
   3.77605683e+00   3.78682363e+00   3.80086554e+00   3.81193654e+00
   3.83526455e+00   3.85078244e+00   3.87157440e+00   3.88685725e+00
   3.88811415e+00   3.90406326e+00   3.92170471e+00   3.92645565e+00
   3.93498604e+00   3.94448771e+00   3.94767919e+00   3.95615521e+00
   3.97550788e+00   4.00563542e+00   4.01284749e+00   4.03366945e+00
   4.03670852e+00   4.05942589e+00   4.06213050e+00   4.09102656e+00
   4.10737507e+00   4.11767832e+00   4.13021027e+00   4.14057320e+00
   4.14764690e+00   4.16829529e+00   4.17317365e+00   4.19011055e+00
   4.19961800e+00   4.20263402e+00   4.22470067e+00   4.23071389e+00
   4.23099482e+00   4.23779124e+00   4.23981382e+00   4.24344921e+00
   4.25913460e+00   4.26506725e+00   4.27151346e+00   4.28514272e+00
   4.29191883e+00   4.31180266e+00   4.32336945e+00   4.34506656e+00
   4.35939532e+00   4.36964585e+00   4.38047240e+00   4.39603016e+00
   4.41142244e+00   4.42535415e+00   4.44759544e+00   4.45520073e+00
   4.47202165e+00   4.47754496e+00   4.51851956e+00   4.54802742e+00
   4.57204475e+00   4.59729073e+00   4.63424405e+00   4.65255095e+00
   4.65834497e+00   4.68013106e+00   4.68859275e+00   4.70117567e+00
   4.72168976e+00   4.72690813e+00   4.73977608e+00   4.74328238e+00
   4.76510392e+00   4.78322707e+00   4.82612357e+00   4.83349070e+00
   4.85303472e+00   4.87153784e+00   4.87297420e+00   4.89881663e+00
   4.93480105e+00   4.94829071e+00   4.95543961e+00   4.99336550e+00
   5.01079805e+00   5.03092387e+00   5.05288179e+00   5.07807952e+00
   5.10374034e+00   5.16062774e+00   5.19798071e+00   5.21676149e+00
   5.28190307e+00   5.28867043e+00   5.30703142e+00   5.38456658e+00
   5.42512545e+00   5.48767239e+00   5.49521125e+00   5.52461952e+00
   5.65245446e+00   5.66553579e+00   5.78096896e+00   8.91176291e+00
   8.94274909e+00   8.95438929e+00   9.45518654e+00   9.46131246e+00
   9.48509888e+00   9.52656981e+00   9.54627130e+00   9.56914616e+00
   2.01234080e+01   2.01808286e+01   2.02892964e+01   2.20436675e+01
   2.21864820e+01   2.22160888e+01   2.24918583e+01   2.25362292e+01
   2.25545449e+01   2.25951726e+01   2.26317580e+01   2.26771266e+01
   2.26845611e+01   2.27236090e+01   2.27771321e+01   2.28231156e+01
   2.28385411e+01   2.28800143e+01   2.29170651e+01   2.29467499e+01
   2.30718156e+01   2.32574469e+01   2.33749593e+01]
nelec by numeric integration = 182.00005068
    CPU time for vxc     59.76 sec, wall time      3.32 sec
    CPU time for df vj and vk    201.16 sec, wall time     10.57 sec
E1 = -6759.89796816  Ecoul = 2939.42315516  Exc = -189.455825182
Extra cycle  E= -1964.08503587474  delta_E= -2.27e-12  |g|= 5.94e-07  |ddm|= 1.18e-06
    CPU time for scf_cycle   1780.86 sec, wall time    146.84 sec
    CPU time for SCF   1780.87 sec, wall time    146.85 sec
converged SCF energy = -1964.08503587474
SCF Done after 146.87 seconds
after SCF memory used: 5.75 GB
Converting <class 'pyscf.df.df_jk.density_fit.<locals>.DFHF'> to RHF
Converting <class 'pyscf.df.df_jk.density_fit.<locals>.DFHF'> to RHF
hdiag shape (65884,)
n_occ =  91
n_vir =  724
max_vir =  238
A_size =  65884
A_reduced_size = 21658
a_x = 0.25
beta = 0.6575
alpha = 1.54
Q-Gamma tensors building time = 0.40
after Q matrix memory used: 5.90 GB
dynpol
|-------- In-house Developed dynpol Starts ---------|
Residual conv = 1e-05

Perturbation wavelength omega (nm) = [800.0]
Initial guess:   sTDDFT
Preconditioner:  sTDDFT
A matrix size =  65884
pqnorm [[ 11.12165055  11.05592846   9.14281133]]
sTDDFT_preconditioner conv 0.01
sTDDFT preconditioning Done
after 5 steps; 1.1200 s
final subspace 13
max_norm =  9.84e-03
initial_cost 0.0372s  3.32%
MVcost     0.8775s  78.35%
GScost     0.0892s  7.97%
subgencost 0.0695s  6.20%
subcost    0.0039s  0.35%
initial guess of tensor alpha
800.0 nm
[[ 643.78980024    5.24319845  -11.11333935]
 [   5.24319845  569.51648879  -14.7024735 ]
 [ -11.11333935  -14.7024735   286.72322858]]
Iteration 0
    CPU time for df vj and vk    550.93 sec, wall time     31.55 sec
sigma.shape (3, 3)
maximum residual norm:  5.649e-01
sTDDFT_preconditioner conv 0.01
sTDDFT preconditioning Done
after 4 steps; 0.9341 s
final subspace 11
max_norm =  8.90e-03
initial_cost 0.0271s  2.90%
MVcost     0.7584s  81.19%
GScost     0.0647s  6.92%
subgencost 0.0481s  5.15%
subcost    0.0026s  0.28%
Iteration 1
    CPU time for df vj and vk    545.00 sec, wall time     31.33 sec
sigma.shape (6, 6)
maximum residual norm:  2.020e-01
sTDDFT_preconditioner conv 0.01
sTDDFT preconditioning Done
after 4 steps; 1.0203 s
final subspace 12
max_norm =  3.56e-03
initial_cost 0.0282s  2.76%
MVcost     0.8303s  81.38%
GScost     0.0761s  7.46%
subgencost 0.0492s  4.82%
subcost    0.0026s  0.25%
Iteration 2
    CPU time for df vj and vk    555.86 sec, wall time     32.28 sec
sigma.shape (9, 9)
maximum residual norm:  6.097e-02
sTDDFT_preconditioner conv 0.01
sTDDFT preconditioning Done
after 4 steps; 1.0031 s
final subspace 12
max_norm =  5.22e-03
initial_cost 0.0274s  2.74%
MVcost     0.8153s  81.28%
GScost     0.0756s  7.54%
subgencost 0.0483s  4.82%
subcost    0.0025s  0.25%
Iteration 3
    CPU time for df vj and vk    544.35 sec, wall time     31.18 sec
sigma.shape (12, 12)
maximum residual norm:  1.890e-02
sTDDFT_preconditioner conv 0.01
sTDDFT preconditioning Done
after 4 steps; 1.0050 s
final subspace 12
max_norm =  4.51e-03
initial_cost 0.0270s  2.69%
MVcost     0.8164s  81.24%
GScost     0.0759s  7.56%
subgencost 0.0491s  4.88%
subcost    0.0025s  0.25%
Iteration 4
    CPU time for df vj and vk    537.80 sec, wall time     30.83 sec
sigma.shape (15, 15)
maximum residual norm:  5.193e-03
sTDDFT_preconditioner conv 0.01
sTDDFT preconditioning Done
after 4 steps; 0.9902 s
final subspace 12
max_norm =  5.05e-03
initial_cost 0.0204s  2.06%
MVcost     0.8087s  81.68%
GScost     0.0760s  7.67%
subgencost 0.0490s  4.95%
subcost    0.0026s  0.26%
Iteration 5
    CPU time for df vj and vk    546.55 sec, wall time     29.97 sec
sigma.shape (18, 18)
maximum residual norm:  1.604e-03
sTDDFT_preconditioner conv 0.01
sTDDFT preconditioning Done
after 4 steps; 1.0014 s
final subspace 12
max_norm =  4.66e-03
initial_cost 0.0203s  2.02%
MVcost     0.8201s  81.89%
GScost     0.0760s  7.59%
subgencost 0.0487s  4.87%
subcost    0.0025s  0.25%
Iteration 6
    CPU time for df vj and vk    542.29 sec, wall time     30.85 sec
sigma.shape (21, 21)
maximum residual norm:  4.565e-04
sTDDFT_preconditioner conv 0.01
sTDDFT preconditioning Done
after 4 steps; 0.9821 s
final subspace 12
max_norm =  4.12e-03
initial_cost 0.0202s  2.05%
MVcost     0.8022s  81.68%
GScost     0.0756s  7.70%
subgencost 0.0486s  4.94%
subcost    0.0025s  0.26%
Iteration 7
    CPU time for df vj and vk    544.70 sec, wall time     29.87 sec
sigma.shape (24, 24)
maximum residual norm:  1.343e-04
sTDDFT_preconditioner conv 0.01
sTDDFT preconditioning Done
after 4 steps; 0.9988 s
final subspace 12
max_norm =  5.50e-03
initial_cost 0.0249s  2.49%
MVcost     0.8136s  81.46%
GScost     0.0757s  7.58%
subgencost 0.0484s  4.85%
subcost    0.0025s  0.26%
Iteration 8
    CPU time for df vj and vk    543.71 sec, wall time     31.83 sec
sigma.shape (27, 27)
maximum residual norm:  3.846e-05
sTDDFT_preconditioner conv 0.01
sTDDFT preconditioning Done
after 4 steps; 1.0685 s
final subspace 12
max_norm =  5.00e-03
initial_cost 0.0268s  2.51%
MVcost     0.8703s  81.45%
GScost     0.0773s  7.23%
subgencost 0.0532s  4.98%
subcost    0.0031s  0.29%
Iteration 9
    CPU time for df vj and vk    544.97 sec, wall time     33.07 sec
sigma.shape (30, 30)
maximum residual norm:  1.239e-05
sTDDFT_preconditioner conv 0.01
sTDDFT preconditioning Done
after 4 steps; 0.7009 s
final subspace 8
max_norm =  4.49e-03
initial_cost 0.0174s  2.48%
MVcost     0.5847s  83.42%
GScost     0.0366s  5.22%
subgencost 0.0322s  4.60%
subcost    0.0027s  0.39%
Iteration 10
    CPU time for df vj and vk    378.89 sec, wall time     25.33 sec
sigma.shape (32, 32)
maximum residual norm:  3.630e-06
Dynamic polarizability Converged after  11 iterations   466.3509 seconds
initial_cost 1.1768 0.25 %
Pcost 9.7704 2.1 %
MVcost 450.6359 96.63 %
GScost 2.3526 0.5 %
subcost 0.0165 0.0 %
subgencost 1.8019 0.39 %
Wavelength we look at [800.0]
Total Dynamic polarizability memory used: 6.22 GB
Dynamic polarizability tensor alpha
800.0 nm
[[ 550.00555576    0.80623719  -13.51981212]
 [   0.80623719  462.36478948  -20.83117022]
 [ -13.51981212  -20.83117022  152.11520115]]

Perturbation wavelength omega (nm) = [800.0]
Initial guess:   Adiag
Preconditioner:  Adiag
A matrix size =  65884
pqnorm [[ 11.12165055  11.05592846   9.14281133]]
initial guess of tensor alpha
800.0 nm
[[ 772.04644203   19.45472397  -32.00158449]
 [  19.45472397  756.01998729  -49.00635291]
 [ -32.00158449  -49.00635291  267.45651435]]
Iteration 0
    CPU time for df vj and vk    538.97 sec, wall time     30.99 sec
sigma.shape (3, 3)
maximum residual norm:  7.044e-01
Iteration 1
    CPU time for df vj and vk    535.90 sec, wall time     30.82 sec
sigma.shape (6, 6)
maximum residual norm:  2.254e-01
Iteration 2
    CPU time for df vj and vk    530.27 sec, wall time     29.04 sec
sigma.shape (9, 9)
maximum residual norm:  1.102e-01
Iteration 3
    CPU time for df vj and vk    545.18 sec, wall time     31.06 sec
sigma.shape (12, 12)
maximum residual norm:  4.157e-02
Iteration 4
    CPU time for df vj and vk    542.88 sec, wall time     31.51 sec
sigma.shape (15, 15)
maximum residual norm:  2.005e-02
Iteration 5
    CPU time for df vj and vk    539.93 sec, wall time     31.04 sec
sigma.shape (18, 18)
maximum residual norm:  8.390e-03
Iteration 6
    CPU time for df vj and vk    549.24 sec, wall time     31.58 sec
sigma.shape (21, 21)
maximum residual norm:  3.086e-03
Iteration 7
    CPU time for df vj and vk    565.53 sec, wall time     32.93 sec
sigma.shape (24, 24)
maximum residual norm:  8.550e-04
Iteration 8
    CPU time for df vj and vk    558.67 sec, wall time     32.36 sec
sigma.shape (27, 27)
maximum residual norm:  2.603e-04
Iteration 9
    CPU time for df vj and vk    546.46 sec, wall time     31.28 sec
sigma.shape (30, 30)
maximum residual norm:  7.930e-05
Iteration 10
    CPU time for df vj and vk    539.05 sec, wall time     30.91 sec
sigma.shape (33, 33)
maximum residual norm:  2.951e-05
Iteration 11
    CPU time for df vj and vk    376.34 sec, wall time     21.67 sec
sigma.shape (35, 35)
maximum residual norm:  8.613e-06
Dynamic polarizability Converged after  12 iterations   494.158 seconds
initial_cost 0.0353 0.01 %
Pcost 0.0868 0.02 %
MVcost 488.6673 98.89 %
GScost 2.6775 0.54 %
subcost 0.0163 0.0 %
subgencost 2.0039 0.41 %
Wavelength we look at [800.0]
Total Dynamic polarizability memory used: 6.17 GB
Dynamic polarizability tensor alpha
800.0 nm
[[ 550.00555575    0.80623719  -13.51981212]
 [   0.80623719  462.36478947  -20.83117022]
 [ -13.51981212  -20.83117022  152.11520114]]
basis_set = def2-tzvp
nstates = 4
method = RKS
extrainitial = 8
sTDDFT = False
TDDFT = False
truncate_virtual = 40.0
pytd = False
initial_TOL = 0.01
grid_level = 3
ip_options = [0, 1]
dynpol_omega = [800.0]
checkfile = True
sTDA = False
dynpol = True
TDA = False
memory = 70000
density_fit = True
Truncate_test = False
eigensolver_tol = 1e-05
xyzfile = 37_Rpet.xyz
beta = []
stapol = False
conv_tolerance = 1e-05
max = 30
precond_TOL = 0.01
verbose = 5
functional = pbe0
alpha = []
|-------- In-house Developed dynpol Ends ----------|
