curpath /scratch/pbsjobs/job.16219607.hpc
lib.num_threads() =  20
at beginning memory used: 0.05 GB
mol.max_memory 60000


System: uname_result(system='Linux', node='compt255', release='3.10.0-1127.el7.x86_64', version='#1 SMP Tue Feb 18 16:39:12 EST 2020', machine='x86_64', processor='x86_64')  Threads 20
Python 3.7.0 (default, Aug 23 2018, 14:24:33) 
[GCC 6.3.0]
numpy 1.18.1  scipy 1.4.1
Date: Mon Aug 30 22:46:16 2021
PySCF version 1.7.4
PySCF path  /home/zzz6/.local/lib/python3.7/site-packages/pyscf

[CONFIG] conf_file None
[INPUT] verbose = 5
[INPUT] max_memory = 60000 
[INPUT] num. atoms = 49
[INPUT] num. electrons = 156
[INPUT] charge = 0
[INPUT] spin (= nelec alpha-beta = 2S) = 0
[INPUT] symmetry False subgroup None
[INPUT] Mole.unit = angstrom
[INPUT]  1 O      8.596812826086  -1.341186651948   0.767208986425 AA   16.245621785450  -2.534475454104   1.449814864649 Bohr
[INPUT]  2 C     -4.531485676017   0.840005027898   0.395852991007 AA   -8.563266865061   1.587379445985   0.748053738593 Bohr
[INPUT]  3 C     -5.912817862972   0.142991912416   0.387405131746 AA  -11.173606385453   0.270215552494   0.732089598251 Bohr
[INPUT]  4 C     -5.837786321533  -1.307369641498   0.859703945960 AA  -11.031817321429  -2.470570566001   1.624605006073 Bohr
[INPUT]  5 C     -3.434359710528  -0.084393807286  -0.184953677175 AA   -6.489999266139  -0.159481182380  -0.349511795593 Bohr
[INPUT]  6 C     -4.960654586988  -2.100545426181  -0.107838319794 AA   -9.374278567975  -3.969455567690  -0.203784890145 Bohr
[INPUT]  7 C     -3.660430676832  -1.408002812848  -0.459081878837 AA   -6.917211477169  -2.660739698901  -0.867539019754 Bohr
[INPUT]  8 C     -4.140002340821   1.230573978239   1.841836357235 AA   -7.823470579210   2.325447794887   3.480566281441 Bohr
[INPUT]  9 C     -4.664316050771   2.132010269769  -0.446870321523 AA   -8.814279894370   4.028915504623  -0.844462520874 Bohr
[INPUT] 10 C     -2.139350656840   0.564611082077  -0.412983948152 AA   -4.042786825837   1.066960312020  -0.780426555848 Bohr
[INPUT] 11 C     -2.681954853441  -2.307379106930  -1.177749007820 AA   -5.068160151452  -4.360314577642  -2.225623068258 Bohr
[INPUT] 12 C     -0.905941449907   0.028898972479  -0.164741820756 AA   -1.711981225216   0.054611143268  -0.311316922490 Bohr
[INPUT] 13 C      0.362667685428   0.693790348467  -0.386322790198 AA    0.685342599688   1.311073746469  -0.730044269152 Bohr
[INPUT] 14 C      0.360367355952   2.088235692381  -0.964857742833 AA    0.680995606983   3.946193542142  -1.823316883121 Bohr
[INPUT] 15 C      1.521572780110   0.015564862642  -0.057114906586 AA    2.875355833000   0.029413327559  -0.107931531077 Bohr
[INPUT] 16 C      2.868174400806   0.479493552484  -0.197633397354 AA    5.420064095012   0.906111492690  -0.373472994066 Bohr
[INPUT] 17 C      3.967968580558  -0.266376618278   0.153927827599 AA    7.498373888134  -0.503378854533   0.290881437111 Bohr
[INPUT] 18 C      5.348180559351   0.150730657038   0.032133978621 AA   10.106596521897   0.284839660377   0.060724418885 Bohr
[INPUT] 19 C      5.637973092713   1.526596953767  -0.527259654955 AA   10.654225042894   2.884850145215  -0.996376344398 Bohr
[INPUT] 20 C      6.334625523180  -0.725985422219   0.431449473008 AA   11.970707340489  -1.371913618420   0.815321340573 Bohr
[INPUT] 21 C      7.776189414137  -0.507225669544   0.392867291760 AA   14.694868285461  -0.958517598787   0.742411584727 Bohr
[INPUT] 22 H     -6.315275504084   0.159872514031  -0.644443024793 AA  -11.934141103894   0.302115266364  -1.217820819746 Bohr
[INPUT] 23 H     -6.611123441867   0.732152286033   1.010080232030 AA  -12.493212680821   1.383567302077   1.908775002374 Bohr
[INPUT] 24 H     -6.845870926064  -1.754294621964   0.920832026283 AA  -12.936821134383  -3.315136377309   1.740120336404 Bohr
[INPUT] 25 H     -5.406891313966  -1.352421334413   1.877351654514 AA  -10.217543768686  -2.555705927059   3.547680466530 Bohr
[INPUT] 26 H     -5.517656342294  -2.303965845582  -1.047588061693 AA  -10.426859336405  -4.353864448502  -1.979654527964 Bohr
[INPUT] 27 H     -4.722763629692  -3.100508745985   0.306220051113 AA   -8.924729811176  -5.859112376730   0.578672030453 Bohr
[INPUT] 28 H     -4.872220757264   1.943426454930   2.263123923361 AA   -9.207162849650   3.672543743051   4.276684401103 Bohr
[INPUT] 29 H     -4.098615767378   0.344941717335   2.498908871211 AA   -7.745261290169   0.651845374699   4.722253376835 Bohr
[INPUT] 30 H     -3.143215463730   1.704963455724   1.861111226544 AA   -5.939816376948   3.221913983710   3.516990505522 Bohr
[INPUT] 31 H     -5.537932795550   2.710134033577  -0.096346986283 AA  -10.465176279837   5.121411084324  -0.182069417002 Bohr
[INPUT] 32 H     -3.781761530728   2.787825359318  -0.356143623212 AA   -7.146493561492   5.268226412229  -0.673013908881 Bohr
[INPUT] 33 H     -4.815472192067   1.895186082545  -1.514791447246 AA   -9.099923603465   3.581382651097  -2.862540971129 Bohr
[INPUT] 34 H     -2.177035194682   1.606027060874  -0.755085596110 AA   -4.114000281489   3.034951293691  -1.426904977251 Bohr
[INPUT] 35 H     -2.171941155281  -2.994972374860  -0.474658910497 AA   -4.104373942152  -5.659677539125  -0.896975343424 Bohr
[INPUT] 36 H     -1.908609963874  -1.746758283095  -1.724756009533 AA   -3.606750110338  -3.300894760866  -3.259316489715 Bohr
[INPUT] 37 H     -3.229639480817  -2.948696511438  -1.894203615412 AA   -6.103134099827  -5.572228831079  -3.579526057290 Bohr
[INPUT] 38 H     -0.843819771261  -0.978974434506   0.263308384275 AA   -1.594588266176  -1.849993564168   0.497580732582 Bohr
[INPUT] 39 H      1.374183413281   2.495710543716  -1.088054624837 AA    2.596830296020   4.716209413813  -2.056125249508 Bohr
[INPUT] 40 H     -0.205515997149   2.778546279121  -0.312598915822 AA   -0.388368948829   5.250691491968  -0.590726337740 Bohr
[INPUT] 41 H     -0.135225586715   2.100014605985  -1.952466521681 AA   -0.255539323925   3.968452462899  -3.689626993360 Bohr
[INPUT] 42 H      1.401699696782  -0.995018700732   0.357622285626 AA    2.648828535804  -1.880312833203   0.675808175874 Bohr
[INPUT] 43 H      3.023721880557   1.483492871026  -0.609168733880 AA    5.714006231108   2.803395233984  -1.151162070682 Bohr
[INPUT] 44 H      3.802800267625  -1.271250130774   0.565260437784 AA    7.186251012234  -2.402314582980   1.068187416463 Bohr
[INPUT] 45 H      5.159225806024   2.303553427673   0.095470492441 AA    9.749523788173   4.353085091604   0.180413083691 Bohr
[INPUT] 46 H      5.220895991453   1.623374635113  -1.545763289198 AA    9.866063548685   3.067733457929  -2.921069269991 Bohr
[INPUT] 47 H      6.713581577765   1.744295738240  -0.577087111762 AA   12.686830496902   3.296241225519  -1.090536591246 Bohr
[INPUT] 48 H      6.040513993685  -1.706949192591   0.826929298297 AA   11.414917099668  -3.225666482545   1.562669898160 Bohr
[INPUT] 49 H      8.123832155725   0.483554957576  -0.004140928397 AA   15.351817856255   0.913786435995  -0.007825220571 Bohr
[INPUT] ---------------- BASIS SET ---------------- 
[INPUT] l, kappa, [nprim/nctr], expnt,             c_1 c_2 ...
[INPUT] O
[INPUT] 0    0    [6    /1   ]  27032.382631      0.00021726302465
                                4052.3871392      0.0016838662199
                                922.3272271       0.0087395616265
                                261.24070989      0.035239968808
                                85.354641351      0.11153519115
                                31.035035245      0.25588953961
[INPUT] 0    0    [2    /1   ]  12.260860728      0.39768730901
                                4.9987076005      0.2462784943
[INPUT] 0    0    [1    /1   ]  1.1703108158         1
[INPUT] 0    0    [1    /1   ]  0.46474740994        1
[INPUT] 0    0    [1    /1   ]  0.18504536357        1
[INPUT] 1    0    [4    /1   ]  63.274954801      0.0060685103418
                                14.627049379      0.041912575824
                                4.4501223456      0.16153841088
                                1.5275799647      0.35706951311
[INPUT] 1    0    [1    /1   ]  0.52935117943        1
[INPUT] 1    0    [1    /1   ]  0.1747842127         1
[INPUT] 2    0    [1    /1   ]  2.314                1
[INPUT] 2    0    [1    /1   ]  0.645                1
[INPUT] 3    0    [1    /1   ]  1.428                1
[INPUT] H
[INPUT] 0    0    [3    /1   ]  34.061341         0.0060251978
                                5.1235746         0.045021094
                                1.1646626         0.20189726
[INPUT] 0    0    [1    /1   ]  0.32723041           1
[INPUT] 0    0    [1    /1   ]  0.10307241           1
[INPUT] 1    0    [1    /1   ]  0.8                  1
[INPUT] C
[INPUT] 0    0    [6    /1   ]  13575.349682      0.00022245814352
                                2035.233368       0.0017232738252
                                463.22562359      0.0089255715314
                                131.20019598      0.035727984502
                                42.853015891      0.11076259931
                                15.584185766      0.24295627626
[INPUT] 0    0    [2    /1   ]  6.2067138508      0.41440263448
                                2.5764896527      0.23744968655
[INPUT] 0    0    [1    /1   ]  0.57696339419        1
[INPUT] 0    0    [1    /1   ]  0.22972831358        1
[INPUT] 0    0    [1    /1   ]  0.095164440028       1
[INPUT] 1    0    [4    /1   ]  34.697232244      0.0053333657805
                                7.9582622826      0.035864109092
                                2.3780826883      0.14215873329
                                0.81433208183     0.34270471845
[INPUT] 1    0    [1    /1   ]  0.28887547253        1
[INPUT] 1    0    [1    /1   ]  0.10056823671        1
[INPUT] 2    0    [1    /1   ]  1.097                1
[INPUT] 2    0    [1    /1   ]  0.318                1
[INPUT] 3    0    [1    /1   ]  0.761                1

nuclear repulsion = 1518.71363523781
number of shells = 343
number of NR pGTOs = 1190
number of NR cGTOs = 819
basis = def2-tzvp
ecp = {}
CPU time:         2.90
RKS
Density fitting turned on
Molecule built
Calculating SCF Energy...


******** <class 'pyscf.df.df_jk.density_fit.<locals>.DFHF'> ********
method = DFHF-RKS-RHF
initial guess = chkfile
damping factor = 0
level_shift factor = 0
DIIS = <class 'pyscf.scf.diis.CDIIS'>
diis_start_cycle = 1
diis_space = 8
SCF conv_tol = 1e-10
SCF conv_tol_grad = None
SCF max_cycles = 50
direct_scf = True
direct_scf_tol = 1e-13
chkfile to save SCF result = 49_Retinal_wb97x.chk
max_memory 60000 MB (current use 55 MB)
XC functionals = wb97x
small_rho_cutoff = 1e-07
radial grids: 
    Treutler-Ahlrichs [JCP 102, 346 (1995); DOI:10.1063/1.469408] (M4) radial grids
    
becke partition: Becke, JCP 88, 2547 (1988); DOI:10.1063/1.454033
pruning grids: <function nwchem_prune at 0x7fdc509b5e18>
grids dens level: 3
symmetrized grids: False
atomic radii adjust function: <function treutler_atomic_radii_adjust at 0x7fdc509b5d90>
Set gradient conv threshold to 1e-05
atom O rad-grids = 75, ang-grids = [ 50  50  50  50  50  50  50  50  50  50  50  50  50  50  50  50  50  50
  50  50  50  50  86  86  86  86  86  86  86  86  86 266 266 266 266 266
 266 266 302 302 302 302 302 302 302 302 302 302 302 302 302 302 302 302
 302 302 302 266 266 266 266 266 266 266 266 266 266 266 266 266 266 266
 266 266 266]
atom C rad-grids = 75, ang-grids = [ 50  50  50  50  50  50  50  50  50  50  50  50  50  50  50  50  50  50
  50  50  50  50  50  86  86  86  86  86  86  86  86  86  86 266 266 266
 266 266 266 266 302 302 302 302 302 302 302 302 302 302 302 302 302 302
 302 302 302 302 302 302 266 266 266 266 266 266 266 266 266 266 266 266
 266 266 266]
atom H rad-grids = 50, ang-grids = [ 50  50  50  50  50  50  50  50  50  50  50  50  50  50  86  86  86  86
 266 266 266 266 302 302 302 302 302 302 302 302 302 302 302 302 302 266
 266 266 266 266 266 266 266 266 266 266 266 266 266 266]
tot grids = 572974
Drop grids 107046
    CPU time for setting up grids     99.94 sec, wall time      6.30 sec
nelec by numeric integration = 156.00012973015984
    CPU time for vxc    116.60 sec, wall time      6.65 sec
******** <class 'pyscf.df.df.DF'> ********
auxbasis = None
max_memory = 60000
_cderi_to_save = /tmp/job.16219607.hpc/tmpj9e4pnto
Default auxbasis def2-tzvp-jkfit is used for O def2-tzvp
Default auxbasis def2-tzvp-jkfit is used for H def2-tzvp
Default auxbasis def2-tzvp-jkfit is used for C def2-tzvp
num shells = 693, num cGTOs = 2081
size of aux basis 2081
int3c2e [1/1], AO [0:343], nrow = 335790
    CPU time for cholesky_eri    100.61 sec, wall time     17.46 sec
    CPU time for df vj and vk    324.15 sec, wall time     32.63 sec
Create RSH-DF object <pyscf.df.df.DF object at 0x7fdc7180c128> for omega=0.3
******** <class 'pyscf.df.df.DF'> ********
auxbasis = None
max_memory = 60000
_cderi_to_save = /tmp/job.16219607.hpc/tmpnyup6ri2
Default auxbasis def2-tzvp-jkfit is used for O def2-tzvp
Default auxbasis def2-tzvp-jkfit is used for H def2-tzvp
Default auxbasis def2-tzvp-jkfit is used for C def2-tzvp
num shells = 693, num cGTOs = 2081
size of aux basis 1710
int3c2e [1/1], AO [0:343], nrow = 335790
    CPU time for cholesky_eri    154.98 sec, wall time     11.44 sec
    CPU time for df vj and vk    342.93 sec, wall time     22.01 sec
E1 = -4169.009805084557  Ecoul = 1923.4037143866196  Exc = -127.33385626018907
init E= -854.226311720315
cond(S) = 689350.1788608104
    CPU time for initialize scf    890.68 sec, wall time     68.39 sec
  HOMO = -0.278924452134796  LUMO = -0.0297425001140958
  mo_energy =
[-1.91777360e+01 -1.03392177e+01 -1.03064135e+01 -1.02925984e+01
 -1.02861638e+01 -1.02796404e+01 -1.02769733e+01 -1.02740750e+01
 -1.02735204e+01 -1.02731539e+01 -1.02715543e+01 -1.02693268e+01
 -1.02689142e+01 -1.02662594e+01 -1.02657590e+01 -1.02620407e+01
 -1.02566100e+01 -1.02551233e+01 -1.02549811e+01 -1.02525900e+01
 -1.02485098e+01 -1.15189665e+00 -9.93644092e-01 -9.83105143e-01
 -9.65610525e-01 -9.25488565e-01 -9.21519932e-01 -8.98121068e-01
 -8.61688721e-01 -8.46814090e-01 -8.30605590e-01 -8.16401255e-01
 -8.14159066e-01 -8.04625871e-01 -7.76029399e-01 -7.36572316e-01
 -7.06981694e-01 -6.90547330e-01 -6.73966733e-01 -6.64018195e-01
 -6.51738853e-01 -6.26508674e-01 -6.05311217e-01 -6.01408209e-01
 -5.86170606e-01 -5.74636378e-01 -5.67409551e-01 -5.57048505e-01
 -5.49563787e-01 -5.48628525e-01 -5.41624635e-01 -5.39582114e-01
 -5.37699566e-01 -5.25568794e-01 -5.16825406e-01 -5.11443642e-01
 -5.09709391e-01 -5.06424951e-01 -5.00546929e-01 -4.96894190e-01
 -4.95155087e-01 -4.83134173e-01 -4.80943466e-01 -4.77455243e-01
 -4.67787971e-01 -4.59714501e-01 -4.57649570e-01 -4.53107665e-01
 -4.51601304e-01 -4.48615838e-01 -4.25556676e-01 -4.19298943e-01
 -4.08325740e-01 -3.99185186e-01 -3.74109998e-01 -3.53701558e-01
 -3.30913836e-01 -2.78924452e-01 -2.97425001e-02  4.02900086e-02
  9.39797528e-02  9.65616151e-02  1.06078411e-01  1.15589843e-01
  1.21453365e-01  1.27754681e-01  1.34876070e-01  1.38171733e-01
  1.44366396e-01  1.46950799e-01  1.48143238e-01  1.53745828e-01
  1.59058709e-01  1.59985983e-01  1.61200764e-01  1.65102977e-01
  1.73929137e-01  1.85697450e-01  1.91488228e-01  1.94941369e-01
  1.98042125e-01  2.00507649e-01  2.05627667e-01  2.09446687e-01
  2.12333963e-01  2.16799296e-01  2.18112735e-01  2.22181802e-01
  2.24368466e-01  2.26751961e-01  2.31666029e-01  2.35289068e-01
  2.41531206e-01  2.46536447e-01  2.50632279e-01  2.56248678e-01
  2.58100269e-01  2.60247604e-01  2.65098248e-01  2.66535023e-01
  2.69687526e-01  2.75863281e-01  2.80007591e-01  2.86818968e-01
  2.90845506e-01  2.96198164e-01  2.97296692e-01  3.08561609e-01
  3.11879287e-01  3.16961968e-01  3.19552891e-01  3.24038728e-01
  3.28219948e-01  3.38281332e-01  3.41304871e-01  3.46863993e-01
  3.53394552e-01  3.56928135e-01  3.61239068e-01  3.62993159e-01
  3.65168786e-01  3.70045602e-01  3.79048475e-01  3.80047733e-01
  3.87905918e-01  3.97627418e-01  4.01796264e-01  4.06327785e-01
  4.09097080e-01  4.11454937e-01  4.14725935e-01  4.19007752e-01
  4.25951279e-01  4.30605753e-01  4.31048653e-01  4.40472616e-01
  4.45375602e-01  4.47144832e-01  4.51767967e-01  4.57930469e-01
  4.59766585e-01  4.64742248e-01  4.68960461e-01  4.70609130e-01
  4.71054459e-01  4.80818215e-01  4.85717821e-01  4.88916335e-01
  4.94348649e-01  4.95822499e-01  5.00746363e-01  5.04079570e-01
  5.07588428e-01  5.08946666e-01  5.12726842e-01  5.13431313e-01
  5.19077105e-01  5.24099091e-01  5.25097261e-01  5.28142935e-01
  5.30493437e-01  5.33919100e-01  5.40730783e-01  5.43363602e-01
  5.47464571e-01  5.52002558e-01  5.55213134e-01  5.57177458e-01
  5.60038261e-01  5.65130340e-01  5.67592272e-01  5.68722562e-01
  5.71740009e-01  5.74276607e-01  5.77556436e-01  5.79850799e-01
  5.85342036e-01  5.88716712e-01  5.91537629e-01  5.95213813e-01
  6.05053219e-01  6.06672167e-01  6.07603255e-01  6.15080254e-01
  6.18043238e-01  6.23404947e-01  6.25345583e-01  6.31659474e-01
  6.45054362e-01  6.50381808e-01  6.55412736e-01  6.60968861e-01
  6.70971286e-01  6.71811978e-01  6.77919278e-01  6.85865909e-01
  6.88072652e-01  6.96077679e-01  7.00005263e-01  7.03490395e-01
  7.09928122e-01  7.16729643e-01  7.19697310e-01  7.23954530e-01
  7.30576761e-01  7.37525011e-01  7.40704318e-01  7.48900135e-01
  7.58953818e-01  7.68587786e-01  7.70515474e-01  7.80121411e-01
  7.85142743e-01  7.89278705e-01  7.92220174e-01  7.99926549e-01
  8.03928283e-01  8.13196807e-01  8.14264549e-01  8.30214046e-01
  8.35092874e-01  8.42122339e-01  8.43517025e-01  8.50748392e-01
  8.58296332e-01  8.64424887e-01  8.70972455e-01  8.77359734e-01
  8.84982170e-01  8.93911305e-01  9.01799142e-01  9.08834733e-01
  9.13560371e-01  9.23726725e-01  9.28745955e-01  9.48035598e-01
  9.53370020e-01  9.61398348e-01  9.69566249e-01  9.74478709e-01
  9.79972996e-01  9.82748482e-01  9.92596315e-01  9.95944786e-01
  9.99386044e-01  1.01204199e+00  1.01561688e+00  1.02336335e+00
  1.03021221e+00  1.03905880e+00  1.05291967e+00  1.05673764e+00
  1.05970180e+00  1.06584456e+00  1.07301313e+00  1.07779643e+00
  1.08218157e+00  1.08620065e+00  1.09408611e+00  1.11213410e+00
  1.11377035e+00  1.12560149e+00  1.12938351e+00  1.13496847e+00
  1.13751944e+00  1.14222483e+00  1.15798008e+00  1.16068178e+00
  1.16281594e+00  1.16919602e+00  1.17972007e+00  1.18756564e+00
  1.19168641e+00  1.19668990e+00  1.20206411e+00  1.21799651e+00
  1.22091321e+00  1.23131501e+00  1.23887119e+00  1.24578759e+00
  1.25309103e+00  1.26234404e+00  1.26427842e+00  1.27388955e+00
  1.28404521e+00  1.29688851e+00  1.29831295e+00  1.30569056e+00
  1.31527740e+00  1.32071155e+00  1.33032917e+00  1.33323740e+00
  1.33872457e+00  1.34303104e+00  1.35514506e+00  1.36450722e+00
  1.36803911e+00  1.37971204e+00  1.38437084e+00  1.39513803e+00
  1.40034730e+00  1.40561631e+00  1.41465037e+00  1.42347787e+00
  1.42852527e+00  1.44087532e+00  1.44448810e+00  1.44818416e+00
  1.45968857e+00  1.46860674e+00  1.48210785e+00  1.49011937e+00
  1.49877948e+00  1.52583779e+00  1.52972116e+00  1.53373737e+00
  1.53578713e+00  1.55189156e+00  1.56162466e+00  1.57380566e+00
  1.57881641e+00  1.59403787e+00  1.59559018e+00  1.59968246e+00
  1.60677573e+00  1.60899970e+00  1.61817181e+00  1.62194352e+00
  1.62561631e+00  1.62875597e+00  1.64329364e+00  1.64471351e+00
  1.64764001e+00  1.64927206e+00  1.65447168e+00  1.65852725e+00
  1.66416481e+00  1.66473433e+00  1.67402286e+00  1.68837473e+00
  1.69093520e+00  1.69191721e+00  1.69483717e+00  1.70593170e+00
  1.70763811e+00  1.71338443e+00  1.71659367e+00  1.72008894e+00
  1.72274536e+00  1.73030810e+00  1.74147047e+00  1.74703377e+00
  1.74912615e+00  1.75741023e+00  1.75967114e+00  1.76628538e+00
  1.77205751e+00  1.77671807e+00  1.78699343e+00  1.78960606e+00
  1.79709613e+00  1.81234302e+00  1.81668135e+00  1.83186929e+00
  1.83704996e+00  1.84321363e+00  1.84673755e+00  1.84739519e+00
  1.85957969e+00  1.86488025e+00  1.88424479e+00  1.88802422e+00
  1.89275315e+00  1.91046434e+00  1.91934629e+00  1.92141070e+00
  1.93038573e+00  1.93866511e+00  1.94837406e+00  1.97129849e+00
  1.97916580e+00  1.98556712e+00  1.98948476e+00  1.99237692e+00
  2.00445755e+00  2.01036797e+00  2.01848319e+00  2.03035516e+00
  2.04148177e+00  2.04620179e+00  2.05317528e+00  2.05600698e+00
  2.07648575e+00  2.08608563e+00  2.09275028e+00  2.09955543e+00
  2.10209531e+00  2.10988360e+00  2.11444883e+00  2.12051032e+00
  2.12796787e+00  2.13969372e+00  2.14445940e+00  2.15687913e+00
  2.16454394e+00  2.16693265e+00  2.17563717e+00  2.17970048e+00
  2.18948798e+00  2.20490858e+00  2.20769924e+00  2.21765843e+00
  2.22677072e+00  2.23467654e+00  2.24993606e+00  2.25889472e+00
  2.26532403e+00  2.27096942e+00  2.27718852e+00  2.28099481e+00
  2.28853734e+00  2.29662270e+00  2.31687107e+00  2.32885839e+00
  2.33203328e+00  2.34201233e+00  2.34735871e+00  2.35605829e+00
  2.36864027e+00  2.38142287e+00  2.39232870e+00  2.39668062e+00
  2.40021282e+00  2.40286287e+00  2.40802423e+00  2.41447411e+00
  2.42221422e+00  2.42968764e+00  2.43892976e+00  2.44666584e+00
  2.45131697e+00  2.46387848e+00  2.47272216e+00  2.47857496e+00
  2.48040089e+00  2.48282430e+00  2.49109595e+00  2.49407917e+00
  2.50986301e+00  2.51791034e+00  2.52861631e+00  2.53360800e+00
  2.53561341e+00  2.54751902e+00  2.56410199e+00  2.57287170e+00
  2.58031722e+00  2.58796276e+00  2.59156579e+00  2.59435710e+00
  2.59733822e+00  2.60758881e+00  2.61119861e+00  2.61344587e+00
  2.61678201e+00  2.62595388e+00  2.62790435e+00  2.63461429e+00
  2.64026138e+00  2.64887613e+00  2.65608131e+00  2.66104984e+00
  2.67270631e+00  2.67881507e+00  2.68265908e+00  2.68491654e+00
  2.68878293e+00  2.69121346e+00  2.69963120e+00  2.70546432e+00
  2.71134809e+00  2.72257249e+00  2.72839100e+00  2.73307905e+00
  2.73607331e+00  2.74278966e+00  2.75146531e+00  2.75902089e+00
  2.77255423e+00  2.77524563e+00  2.78002415e+00  2.78947173e+00
  2.79815852e+00  2.80192465e+00  2.80804959e+00  2.81476733e+00
  2.82552441e+00  2.82653508e+00  2.83552326e+00  2.83883045e+00
  2.84086786e+00  2.85326775e+00  2.85932520e+00  2.86805784e+00
  2.87041754e+00  2.87507787e+00  2.88041006e+00  2.88838231e+00
  2.90448775e+00  2.91388180e+00  2.92040632e+00  2.92819703e+00
  2.93118106e+00  2.93488621e+00  2.94135869e+00  2.94533614e+00
  2.94896898e+00  2.95498639e+00  2.96326650e+00  2.97122025e+00
  2.97510790e+00  2.98456695e+00  2.99131323e+00  2.99475661e+00
  3.00125156e+00  3.01024877e+00  3.01567414e+00  3.02169480e+00
  3.03666733e+00  3.04107902e+00  3.05264619e+00  3.05914212e+00
  3.06818205e+00  3.07619480e+00  3.08693042e+00  3.08881910e+00
  3.10050586e+00  3.11587300e+00  3.12644490e+00  3.12764770e+00
  3.13067832e+00  3.13254276e+00  3.14729476e+00  3.15494712e+00
  3.15540015e+00  3.16573393e+00  3.16686253e+00  3.17510537e+00
  3.18299299e+00  3.18452494e+00  3.19042758e+00  3.19957417e+00
  3.20390541e+00  3.21321767e+00  3.22437423e+00  3.22586216e+00
  3.23506629e+00  3.23763688e+00  3.24286982e+00  3.25414408e+00
  3.25614178e+00  3.26375295e+00  3.27606472e+00  3.27801707e+00
  3.28329375e+00  3.29022763e+00  3.29383709e+00  3.29490644e+00
  3.30004273e+00  3.30367888e+00  3.30599039e+00  3.31460786e+00
  3.32039980e+00  3.33326167e+00  3.33840979e+00  3.34217805e+00
  3.34645834e+00  3.34972922e+00  3.35387483e+00  3.35980529e+00
  3.36189378e+00  3.36748887e+00  3.37328820e+00  3.37588533e+00
  3.38189704e+00  3.38633670e+00  3.38928047e+00  3.39542804e+00
  3.40623772e+00  3.41149403e+00  3.41998490e+00  3.42327934e+00
  3.43032596e+00  3.43763779e+00  3.43836340e+00  3.44128958e+00
  3.44803047e+00  3.45107198e+00  3.45613310e+00  3.46043259e+00
  3.46746057e+00  3.47305524e+00  3.48177621e+00  3.48631430e+00
  3.48851582e+00  3.49876822e+00  3.50260231e+00  3.50630850e+00
  3.51485852e+00  3.52390947e+00  3.52563495e+00  3.53957105e+00
  3.54668018e+00  3.54927679e+00  3.55284781e+00  3.56126854e+00
  3.58114544e+00  3.58951085e+00  3.59312349e+00  3.59893197e+00
  3.60609891e+00  3.60985829e+00  3.61480762e+00  3.61861771e+00
  3.63593453e+00  3.64064748e+00  3.64557512e+00  3.65636283e+00
  3.66594679e+00  3.67785235e+00  3.68356851e+00  3.68992725e+00
  3.69731666e+00  3.70420354e+00  3.71132757e+00  3.71337651e+00
  3.72789895e+00  3.74004607e+00  3.74530311e+00  3.75255937e+00
  3.77003541e+00  3.77476219e+00  3.78395311e+00  3.79364700e+00
  3.80090628e+00  3.80749482e+00  3.81997612e+00  3.83027841e+00
  3.84292650e+00  3.84464607e+00  3.84865739e+00  3.86724380e+00
  3.87410864e+00  3.87833777e+00  3.88151804e+00  3.89110352e+00
  3.91853561e+00  3.92028816e+00  3.93038728e+00  3.93481388e+00
  3.94757981e+00  3.96303043e+00  3.97758179e+00  3.98040163e+00
  4.00361876e+00  4.00646842e+00  4.01090366e+00  4.02142238e+00
  4.03154592e+00  4.03902644e+00  4.04979425e+00  4.05767775e+00
  4.06313112e+00  4.07755023e+00  4.10229583e+00  4.10920931e+00
  4.11217633e+00  4.13424839e+00  4.13990699e+00  4.16328800e+00
  4.17865821e+00  4.18651930e+00  4.20006102e+00  4.21869842e+00
  4.22366351e+00  4.22641545e+00  4.23345615e+00  4.25643776e+00
  4.26094410e+00  4.26957183e+00  4.27717708e+00  4.30730841e+00
  4.31246274e+00  4.32546559e+00  4.32791731e+00  4.34340967e+00
  4.34836104e+00  4.35922624e+00  4.36146897e+00  4.36904389e+00
  4.38159162e+00  4.38780609e+00  4.39340328e+00  4.41979811e+00
  4.43129528e+00  4.43608835e+00  4.44924637e+00  4.47044103e+00
  4.48595008e+00  4.49084732e+00  4.50056366e+00  4.51193739e+00
  4.52474424e+00  4.53184652e+00  4.54033855e+00  4.54758258e+00
  4.56197105e+00  4.56615508e+00  4.57526076e+00  4.58117105e+00
  4.59263271e+00  4.61317930e+00  4.62328668e+00  4.62938814e+00
  4.63718591e+00  4.64071193e+00  4.67924749e+00  4.68523054e+00
  4.70575783e+00  4.71830463e+00  4.73075720e+00  4.74449830e+00
  4.76359092e+00  4.78446270e+00  4.79211125e+00  4.81754484e+00
  4.82185544e+00  4.84232609e+00  4.88129919e+00  4.88394608e+00
  4.91855501e+00  4.94072440e+00  4.95788297e+00  4.97816016e+00
  4.99633807e+00  5.00870665e+00  5.04837531e+00  5.05605673e+00
  5.08609484e+00  5.09905603e+00  5.14117014e+00  5.16889934e+00
  5.19588211e+00  5.21695851e+00  5.22050446e+00  5.23187900e+00
  5.26821614e+00  5.30237178e+00  5.30838286e+00  5.33067670e+00
  5.35731610e+00  5.38602600e+00  5.41347294e+00  5.45308406e+00
  5.54399981e+00  5.62829552e+00  5.64727340e+00  5.66488447e+00
  5.72176328e+00  5.79598950e+00  6.15773583e+00  6.41817674e+00
  6.45138960e+00  6.53906955e+00  6.57785627e+00  6.89812206e+00
  7.07097141e+00  7.15275023e+00  2.23718377e+01  2.24383497e+01
  2.24414396e+01  2.24578005e+01  2.24881538e+01  2.25140454e+01
  2.25651187e+01  2.25765196e+01  2.26163728e+01  2.26369448e+01
  2.26527271e+01  2.27104924e+01  2.27537381e+01  2.27841791e+01
  2.28329333e+01  2.28523870e+01  2.29011170e+01  2.30629774e+01
  2.31385685e+01  2.33007406e+01  4.38709452e+01]
nelec by numeric integration = 156.000129730161
    CPU time for vxc     93.12 sec, wall time      5.15 sec
    CPU time for df vj and vk    217.17 sec, wall time     14.95 sec
    CPU time for df vj and vk    180.47 sec, wall time      9.34 sec
E1 = -4169.009829850328  Ecoul = 1923.403743614739  Exc = -127.33386072253074
cycle= 1 E= -854.226311720308  delta_E= 6.82e-12  |g|= 8.6e-06  |ddm|= 2.47e-05
    CPU time for cycle= 1    496.80 sec, wall time     30.11 sec
  HOMO = -0.27892432870145  LUMO = -0.0297424250951493
  mo_energy =
[-1.91777275e+01 -1.03392205e+01 -1.03064150e+01 -1.02925967e+01
 -1.02861624e+01 -1.02796406e+01 -1.02769745e+01 -1.02740750e+01
 -1.02735206e+01 -1.02731528e+01 -1.02715544e+01 -1.02693257e+01
 -1.02689136e+01 -1.02662620e+01 -1.02657593e+01 -1.02620406e+01
 -1.02566099e+01 -1.02551233e+01 -1.02549808e+01 -1.02525899e+01
 -1.02485097e+01 -1.15189437e+00 -9.93644041e-01 -9.83105350e-01
 -9.65610488e-01 -9.25488549e-01 -9.21519888e-01 -8.98121070e-01
 -8.61688612e-01 -8.46814777e-01 -8.30605358e-01 -8.16401233e-01
 -8.14159053e-01 -8.04625841e-01 -7.76029540e-01 -7.36572362e-01
 -7.06981734e-01 -6.90547386e-01 -6.73966732e-01 -6.64018415e-01
 -6.51738954e-01 -6.26508556e-01 -6.05311136e-01 -6.01408365e-01
 -5.86170555e-01 -5.74636306e-01 -5.67409492e-01 -5.57048483e-01
 -5.49563913e-01 -5.48628131e-01 -5.41624284e-01 -5.39582040e-01
 -5.37699464e-01 -5.25567649e-01 -5.16825284e-01 -5.11443587e-01
 -5.09709301e-01 -5.06424828e-01 -5.00546855e-01 -4.96894484e-01
 -4.95154057e-01 -4.83134254e-01 -4.80943264e-01 -4.77455180e-01
 -4.67788066e-01 -4.59714501e-01 -4.57649512e-01 -4.53107385e-01
 -4.51601167e-01 -4.48615702e-01 -4.25556652e-01 -4.19298890e-01
 -4.08325696e-01 -3.99185168e-01 -3.74110026e-01 -3.53699579e-01
 -3.30913861e-01 -2.78924329e-01 -2.97424251e-02  4.02901366e-02
  9.39798415e-02  9.65616984e-02  1.06078436e-01  1.15589828e-01
  1.21453414e-01  1.27754696e-01  1.34876148e-01  1.38171677e-01
  1.44366424e-01  1.46950481e-01  1.48143079e-01  1.53745570e-01
  1.59058719e-01  1.59986035e-01  1.61200826e-01  1.65103014e-01
  1.73929031e-01  1.85697460e-01  1.91488247e-01  1.94941333e-01
  1.98042106e-01  2.00507609e-01  2.05627680e-01  2.09446714e-01
  2.12333994e-01  2.16799268e-01  2.18112758e-01  2.22181806e-01
  2.24368480e-01  2.26751975e-01  2.31666063e-01  2.35289160e-01
  2.41531216e-01  2.46536508e-01  2.50632284e-01  2.56248731e-01
  2.58100286e-01  2.60247303e-01  2.65098187e-01  2.66534637e-01
  2.69687457e-01  2.75863365e-01  2.80007658e-01  2.86818998e-01
  2.90845543e-01  2.96198103e-01  2.97296698e-01  3.08561582e-01
  3.11879066e-01  3.16961996e-01  3.19552943e-01  3.24038653e-01
  3.28219734e-01  3.38281385e-01  3.41304888e-01  3.46863977e-01
  3.53394554e-01  3.56928131e-01  3.61239028e-01  3.62993089e-01
  3.65168696e-01  3.70045642e-01  3.79048424e-01  3.80047742e-01
  3.87905831e-01  3.97627507e-01  4.01796161e-01  4.06327788e-01
  4.09097069e-01  4.11454858e-01  4.14725971e-01  4.19007818e-01
  4.25951282e-01  4.30605670e-01  4.31048538e-01  4.40472604e-01
  4.45375616e-01  4.47144761e-01  4.51767949e-01  4.57930529e-01
  4.59766659e-01  4.64742162e-01  4.68960466e-01  4.70609190e-01
  4.71054403e-01  4.80818226e-01  4.85717910e-01  4.88916232e-01
  4.94348639e-01  4.95822518e-01  5.00746395e-01  5.04079618e-01
  5.07588412e-01  5.08946602e-01  5.12726679e-01  5.13431287e-01
  5.19077134e-01  5.24099089e-01  5.25097251e-01  5.28142997e-01
  5.30493515e-01  5.33919127e-01  5.40730791e-01  5.43363632e-01
  5.47464517e-01  5.52002495e-01  5.55213103e-01  5.57177492e-01
  5.60038224e-01  5.65130358e-01  5.67592286e-01  5.68722588e-01
  5.71740034e-01  5.74276684e-01  5.77556405e-01  5.79850891e-01
  5.85341739e-01  5.88716682e-01  5.91537666e-01  5.95213887e-01
  6.05053238e-01  6.06672227e-01  6.07603307e-01  6.15080288e-01
  6.18043122e-01  6.23404995e-01  6.25345694e-01  6.31659547e-01
  6.45054813e-01  6.50381898e-01  6.55412984e-01  6.60968915e-01
  6.70971355e-01  6.71812032e-01  6.77919333e-01  6.85865970e-01
  6.88072674e-01  6.96077683e-01  7.00005166e-01  7.03490366e-01
  7.09927923e-01  7.16729518e-01  7.19697259e-01  7.23954562e-01
  7.30576747e-01  7.37524910e-01  7.40704385e-01  7.48900079e-01
  7.58953841e-01  7.68587597e-01  7.70515457e-01  7.80121500e-01
  7.85142751e-01  7.89278801e-01  7.92220309e-01  7.99926633e-01
  8.03928372e-01  8.13196751e-01  8.14264561e-01  8.30214108e-01
  8.35092851e-01  8.42122451e-01  8.43516672e-01  8.50748501e-01
  8.58296326e-01  8.64425073e-01  8.70972491e-01  8.77359730e-01
  8.84982266e-01  8.93911296e-01  9.01799183e-01  9.08834815e-01
  9.13560395e-01  9.23726836e-01  9.28745999e-01  9.48035628e-01
  9.53370073e-01  9.61398896e-01  9.69566125e-01  9.74478692e-01
  9.79973087e-01  9.82748502e-01  9.92596236e-01  9.95944837e-01
  9.99386015e-01  1.01204203e+00  1.01561685e+00  1.02336336e+00
  1.03021230e+00  1.03905865e+00  1.05291969e+00  1.05673766e+00
  1.05970167e+00  1.06584438e+00  1.07301316e+00  1.07779632e+00
  1.08218161e+00  1.08620057e+00  1.09408611e+00  1.11213410e+00
  1.11377038e+00  1.12560155e+00  1.12938353e+00  1.13496824e+00
  1.13751948e+00  1.14222477e+00  1.15798007e+00  1.16068179e+00
  1.16281588e+00  1.16919608e+00  1.17972016e+00  1.18756569e+00
  1.19168646e+00  1.19668974e+00  1.20206409e+00  1.21799638e+00
  1.22091320e+00  1.23131497e+00  1.23887118e+00  1.24578759e+00
  1.25309106e+00  1.26234386e+00  1.26427839e+00  1.27388959e+00
  1.28404514e+00  1.29688852e+00  1.29831297e+00  1.30569051e+00
  1.31527743e+00  1.32071151e+00  1.33032919e+00  1.33323732e+00
  1.33872434e+00  1.34303101e+00  1.35514505e+00  1.36450728e+00
  1.36803912e+00  1.37971207e+00  1.38437085e+00  1.39513803e+00
  1.40034724e+00  1.40561628e+00  1.41465036e+00  1.42347771e+00
  1.42852501e+00  1.44087515e+00  1.44448797e+00  1.44818413e+00
  1.45968858e+00  1.46860698e+00  1.48210794e+00  1.49011939e+00
  1.49877949e+00  1.52583710e+00  1.52972110e+00  1.53373742e+00
  1.53578705e+00  1.55189163e+00  1.56162475e+00  1.57380562e+00
  1.57881644e+00  1.59403780e+00  1.59559018e+00  1.59968239e+00
  1.60677571e+00  1.60899967e+00  1.61817179e+00  1.62194355e+00
  1.62561618e+00  1.62875581e+00  1.64329370e+00  1.64471363e+00
  1.64764013e+00  1.64927209e+00  1.65447167e+00  1.65852715e+00
  1.66416481e+00  1.66473442e+00  1.67402286e+00  1.68837473e+00
  1.69093507e+00  1.69191686e+00  1.69483726e+00  1.70593177e+00
  1.70763815e+00  1.71338448e+00  1.71659366e+00  1.72008901e+00
  1.72274541e+00  1.73030813e+00  1.74147056e+00  1.74703353e+00
  1.74912609e+00  1.75741029e+00  1.75967116e+00  1.76628546e+00
  1.77205756e+00  1.77671822e+00  1.78699396e+00  1.78960616e+00
  1.79709615e+00  1.81234293e+00  1.81668138e+00  1.83186931e+00
  1.83704997e+00  1.84321367e+00  1.84673754e+00  1.84739498e+00
  1.85957950e+00  1.86488021e+00  1.88424479e+00  1.88802420e+00
  1.89275320e+00  1.91046440e+00  1.91934637e+00  1.92141078e+00
  1.93038564e+00  1.93866524e+00  1.94837416e+00  1.97129860e+00
  1.97916586e+00  1.98556716e+00  1.98948474e+00  1.99237631e+00
  2.00445762e+00  2.01036813e+00  2.01848331e+00  2.03035546e+00
  2.04148219e+00  2.04620223e+00  2.05317533e+00  2.05600711e+00
  2.07648571e+00  2.08608560e+00  2.09275024e+00  2.09955547e+00
  2.10209521e+00  2.10988331e+00  2.11444886e+00  2.12051042e+00
  2.12796798e+00  2.13969380e+00  2.14445935e+00  2.15687926e+00
  2.16454413e+00  2.16693270e+00  2.17563726e+00  2.17970054e+00
  2.18948796e+00  2.20490848e+00  2.20769932e+00  2.21765840e+00
  2.22677070e+00  2.23467659e+00  2.24993620e+00  2.25889485e+00
  2.26532424e+00  2.27096955e+00  2.27718853e+00  2.28099462e+00
  2.28853743e+00  2.29662271e+00  2.31687117e+00  2.32885840e+00
  2.33203367e+00  2.34201231e+00  2.34735872e+00  2.35605843e+00
  2.36864038e+00  2.38142296e+00  2.39232873e+00  2.39668058e+00
  2.40021253e+00  2.40286265e+00  2.40802431e+00  2.41447432e+00
  2.42221422e+00  2.42968770e+00  2.43892979e+00  2.44666575e+00
  2.45131699e+00  2.46387831e+00  2.47272219e+00  2.47857488e+00
  2.48040096e+00  2.48282427e+00  2.49109606e+00  2.49407934e+00
  2.50986299e+00  2.51791023e+00  2.52861642e+00  2.53360804e+00
  2.53561343e+00  2.54751907e+00  2.56410205e+00  2.57287172e+00
  2.58031729e+00  2.58796238e+00  2.59156564e+00  2.59435700e+00
  2.59733807e+00  2.60758857e+00  2.61119885e+00  2.61344589e+00
  2.61678198e+00  2.62595381e+00  2.62790413e+00  2.63461426e+00
  2.64026141e+00  2.64887625e+00  2.65608136e+00  2.66104994e+00
  2.67270652e+00  2.67881510e+00  2.68265897e+00  2.68491649e+00
  2.68878276e+00  2.69121351e+00  2.69963116e+00  2.70546431e+00
  2.71134815e+00  2.72257256e+00  2.72839081e+00  2.73307911e+00
  2.73607325e+00  2.74278971e+00  2.75146506e+00  2.75902079e+00
  2.77255440e+00  2.77524580e+00  2.78002429e+00  2.78947187e+00
  2.79815894e+00  2.80192414e+00  2.80804984e+00  2.81476735e+00
  2.82552438e+00  2.82653519e+00  2.83552330e+00  2.83883051e+00
  2.84086799e+00  2.85326778e+00  2.85932542e+00  2.86805782e+00
  2.87041772e+00  2.87507793e+00  2.88040991e+00  2.88838217e+00
  2.90448792e+00  2.91388181e+00  2.92040624e+00  2.92819713e+00
  2.93118104e+00  2.93488632e+00  2.94135860e+00  2.94533617e+00
  2.94896896e+00  2.95498650e+00  2.96326644e+00  2.97122008e+00
  2.97510672e+00  2.98456689e+00  2.99131320e+00  2.99475659e+00
  3.00125163e+00  3.01024889e+00  3.01567425e+00  3.02169496e+00
  3.03666737e+00  3.04107906e+00  3.05264633e+00  3.05914218e+00
  3.06818205e+00  3.07619467e+00  3.08693068e+00  3.08881974e+00
  3.10050591e+00  3.11587303e+00  3.12644481e+00  3.12764713e+00
  3.13067780e+00  3.13254283e+00  3.14729488e+00  3.15494712e+00
  3.15540021e+00  3.16573393e+00  3.16686270e+00  3.17510532e+00
  3.18299280e+00  3.18452517e+00  3.19042780e+00  3.19957452e+00
  3.20390553e+00  3.21321727e+00  3.22437425e+00  3.22586204e+00
  3.23506645e+00  3.23763699e+00  3.24286975e+00  3.25414388e+00
  3.25614189e+00  3.26375299e+00  3.27606481e+00  3.27801705e+00
  3.28329366e+00  3.29022760e+00  3.29383667e+00  3.29490630e+00
  3.30004265e+00  3.30367895e+00  3.30599061e+00  3.31460786e+00
  3.32039979e+00  3.33326177e+00  3.33840991e+00  3.34217811e+00
  3.34645834e+00  3.34972923e+00  3.35387460e+00  3.35980519e+00
  3.36189352e+00  3.36748887e+00  3.37328819e+00  3.37588531e+00
  3.38189703e+00  3.38633676e+00  3.38928018e+00  3.39542800e+00
  3.40623752e+00  3.41149410e+00  3.41998491e+00  3.42327938e+00
  3.43032614e+00  3.43763789e+00  3.43836331e+00  3.44128957e+00
  3.44803034e+00  3.45107179e+00  3.45613311e+00  3.46043264e+00
  3.46746067e+00  3.47305518e+00  3.48177631e+00  3.48631427e+00
  3.48851593e+00  3.49876825e+00  3.50260223e+00  3.50630860e+00
  3.51485864e+00  3.52390947e+00  3.52563498e+00  3.53957107e+00
  3.54668014e+00  3.54927676e+00  3.55284772e+00  3.56126847e+00
  3.58114548e+00  3.58951094e+00  3.59312354e+00  3.59893202e+00
  3.60609894e+00  3.60985833e+00  3.61480772e+00  3.61861775e+00
  3.63593460e+00  3.64064741e+00  3.64557516e+00  3.65636273e+00
  3.66594687e+00  3.67785228e+00  3.68356850e+00  3.68992711e+00
  3.69731670e+00  3.70420358e+00  3.71132764e+00  3.71337665e+00
  3.72789902e+00  3.74004614e+00  3.74530298e+00  3.75255941e+00
  3.77003522e+00  3.77476204e+00  3.78395315e+00  3.79364700e+00
  3.80090632e+00  3.80749481e+00  3.81997592e+00  3.83027834e+00
  3.84292658e+00  3.84464600e+00  3.84865754e+00  3.86724386e+00
  3.87410864e+00  3.87833777e+00  3.88151806e+00  3.89110348e+00
  3.91853561e+00  3.92028818e+00  3.93038727e+00  3.93481375e+00
  3.94757992e+00  3.96303055e+00  3.97758140e+00  3.98040166e+00
  4.00361883e+00  4.00646775e+00  4.01090341e+00  4.02142253e+00
  4.03154612e+00  4.03902601e+00  4.04979397e+00  4.05767786e+00
  4.06313131e+00  4.07755027e+00  4.10229580e+00  4.10920934e+00
  4.11217635e+00  4.13424847e+00  4.13990706e+00  4.16328821e+00
  4.17865824e+00  4.18651938e+00  4.20006101e+00  4.21869830e+00
  4.22366332e+00  4.22641550e+00  4.23345616e+00  4.25643766e+00
  4.26094408e+00  4.26957125e+00  4.27717697e+00  4.30730838e+00
  4.31246271e+00  4.32546562e+00  4.32791726e+00  4.34340980e+00
  4.34836112e+00  4.35922645e+00  4.36146894e+00  4.36904388e+00
  4.38159161e+00  4.38780622e+00  4.39340323e+00  4.41979786e+00
  4.43129537e+00  4.43608844e+00  4.44924661e+00  4.47044108e+00
  4.48595011e+00  4.49084723e+00  4.50056370e+00  4.51193746e+00
  4.52474418e+00  4.53184660e+00  4.54033826e+00  4.54758244e+00
  4.56197107e+00  4.56615510e+00  4.57526080e+00  4.58117094e+00
  4.59263269e+00  4.61317910e+00  4.62328670e+00  4.62938835e+00
  4.63718612e+00  4.64071191e+00  4.67924744e+00  4.68523060e+00
  4.70575789e+00  4.71830464e+00  4.73075732e+00  4.74449837e+00
  4.76359080e+00  4.78446281e+00  4.79211123e+00  4.81754476e+00
  4.82185549e+00  4.84232614e+00  4.88129902e+00  4.88394605e+00
  4.91855501e+00  4.94072436e+00  4.95788291e+00  4.97815984e+00
  4.99633808e+00  5.00870637e+00  5.04837532e+00  5.05605694e+00
  5.08609484e+00  5.09905605e+00  5.14116987e+00  5.16889931e+00
  5.19588203e+00  5.21695826e+00  5.22050445e+00  5.23187919e+00
  5.26821640e+00  5.30237222e+00  5.30838598e+00  5.33067784e+00
  5.35731781e+00  5.38602619e+00  5.41347284e+00  5.45308394e+00
  5.54399970e+00  5.62829582e+00  5.64727609e+00  5.66488466e+00
  5.72176364e+00  5.79599140e+00  6.15773860e+00  6.41817912e+00
  6.45139410e+00  6.53907180e+00  6.57786057e+00  6.89812602e+00
  7.07097528e+00  7.15275409e+00  2.23718377e+01  2.24383496e+01
  2.24414399e+01  2.24578006e+01  2.24881539e+01  2.25140454e+01
  2.25651184e+01  2.25765191e+01  2.26163733e+01  2.26369447e+01
  2.26527272e+01  2.27104924e+01  2.27537382e+01  2.27841791e+01
  2.28329333e+01  2.28523853e+01  2.29011170e+01  2.30629765e+01
  2.31385689e+01  2.33007405e+01  4.38709530e+01]
nelec by numeric integration = 156.00012973023465
    CPU time for vxc    100.94 sec, wall time      5.76 sec
    CPU time for df vj and vk    217.56 sec, wall time     13.96 sec
    CPU time for df vj and vk    180.03 sec, wall time      9.57 sec
E1 = -4169.009809993782  Ecoul = 1923.403718252457  Exc = -127.33385521678032
Extra cycle  E= -854.226311720294  delta_E= 1.41e-11  |g|= 1.25e-05  |ddm|= 2.9e-05
    CPU time for scf_cycle   1890.00 sec, wall time    128.34 sec
    CPU time for SCF   1890.01 sec, wall time    128.34 sec
converged SCF energy = -854.226311720294
SCF Done after 128.42 seconds
after SCF memory used: 10.57 GB
Converting <class 'pyscf.df.df_jk.density_fit.<locals>.DFHF'> to RHF
Converting <class 'pyscf.df.df_jk.density_fit.<locals>.DFHF'> to RHF
hdiag shape (57798,)
n_occ =  78
n_vir =  741
max_vir =  214
A_size =  57798
A_reduced_size = 16692
a_x = 0.56
beta = 8.0
alpha = 4.58
Q-Gamma tensors building time = 0.35
after Q matrix memory used: 10.76 GB
stapol
|-------- In-house Developed stapol Starts ---------|
Residual conv = 1e-05


initial guess sTDDFT
preconditioner sTDDFT
Static polarizability procedure aborted
sTDDFT Stapol precond Converged
after 4 steps 0.2015 s
conv threhsold = 1.00e-02
final subspace: 12
max_norm =  8.29e-03
initial_cost 0.0023s  1.16%
MVcost     0.1632s  80.98%
GScost     0.0161s  8.01%
subgencost 0.0098s  4.86%
subcost    0.0005s  0.23%
alpha tensor of initial guess:
[[622.23290574 -46.28689357  43.59276991]
 [-46.28689357 295.54368387  -7.75548285]
 [ 43.59276991  -7.75548285 265.33487387]]
new_m = 3

Iteration 0
    CPU time for df vj and vk    654.57 sec, wall time     39.81 sec
    CPU time for df vj and vk    529.77 sec, wall time     27.50 sec
max_norm = 8.81e-01
Static polarizability procedure aborted
sTDDFT Stapol precond Converged
after 4 steps 0.2205 s
conv threhsold = 1.00e-02
final subspace: 12
max_norm =  6.09e-03
initial_cost 0.0025s  1.14%
MVcost     0.1780s  80.73%
GScost     0.0164s  7.46%
subgencost 0.0095s  4.30%
subcost    0.0004s  0.16%

Iteration 1
    CPU time for df vj and vk    650.16 sec, wall time     39.41 sec
    CPU time for df vj and vk    531.45 sec, wall time     27.67 sec
max_norm = 2.54e-01
Static polarizability procedure aborted
sTDDFT Stapol precond Converged
after 4 steps 0.2392 s
conv threhsold = 1.00e-02
final subspace: 12
max_norm =  5.73e-03
initial_cost 0.0041s  1.71%
MVcost     0.1951s  81.57%
GScost     0.0167s  6.98%
subgencost 0.0094s  3.95%
subcost    0.0008s  0.35%

Iteration 2
    CPU time for df vj and vk    653.20 sec, wall time     39.71 sec
    CPU time for df vj and vk    528.78 sec, wall time     27.47 sec
max_norm = 8.74e-02
Static polarizability procedure aborted
sTDDFT Stapol precond Converged
after 4 steps 0.2217 s
conv threhsold = 1.00e-02
final subspace: 12
max_norm =  4.37e-03
initial_cost 0.0099s  4.45%
MVcost     0.1728s  77.95%
GScost     0.0169s  7.63%
subgencost 0.0102s  4.62%
subcost    0.0003s  0.14%

Iteration 3
    CPU time for df vj and vk    647.11 sec, wall time     39.60 sec
    CPU time for df vj and vk    528.32 sec, wall time     27.40 sec
max_norm = 2.59e-02
Static polarizability procedure aborted
sTDDFT Stapol precond Converged
after 4 steps 0.2459 s
conv threhsold = 1.00e-02
final subspace: 12
max_norm =  4.26e-03
initial_cost 0.0049s  1.99%
MVcost     0.2017s  82.00%
GScost     0.0170s  6.90%
subgencost 0.0100s  4.07%
subcost    0.0003s  0.13%

Iteration 4
    CPU time for df vj and vk    650.84 sec, wall time     39.53 sec
    CPU time for df vj and vk    530.88 sec, wall time     27.69 sec
max_norm = 8.78e-03
Static polarizability procedure aborted
sTDDFT Stapol precond Converged
after 4 steps 0.2134 s
conv threhsold = 1.00e-02
final subspace: 12
max_norm =  6.04e-03
initial_cost 0.0025s  1.16%
MVcost     0.1736s  81.32%
GScost     0.0166s  7.79%
subgencost 0.0098s  4.58%
subcost    0.0003s  0.15%

Iteration 5
    CPU time for df vj and vk    657.12 sec, wall time     39.59 sec
    CPU time for df vj and vk    530.97 sec, wall time     27.61 sec
max_norm = 2.59e-03
Static polarizability procedure aborted
sTDDFT Stapol precond Converged
after 4 steps 0.4111 s
conv threhsold = 1.00e-02
final subspace: 12
max_norm =  3.83e-03
initial_cost 0.0101s  2.47%
MVcost     0.3173s  77.18%
GScost     0.0338s  8.23%
subgencost 0.0193s  4.70%
subcost    0.0058s  1.41%

Iteration 6
    CPU time for df vj and vk    653.53 sec, wall time     39.10 sec
    CPU time for df vj and vk    527.66 sec, wall time     27.28 sec
max_norm = 7.82e-04
Static polarizability procedure aborted
sTDDFT Stapol precond Converged
after 4 steps 0.2552 s
conv threhsold = 1.00e-02
final subspace: 12
max_norm =  4.22e-03
initial_cost 0.0051s  2.00%
MVcost     0.2122s  83.15%
GScost     0.0167s  6.55%
subgencost 0.0093s  3.65%
subcost    0.0004s  0.14%

Iteration 7
    CPU time for df vj and vk    647.19 sec, wall time     39.06 sec
    CPU time for df vj and vk    526.66 sec, wall time     27.30 sec
max_norm = 2.34e-04
Static polarizability procedure aborted
sTDDFT Stapol precond Converged
after 4 steps 0.2013 s
conv threhsold = 1.00e-02
final subspace: 12
max_norm =  3.87e-03
initial_cost 0.0025s  1.24%
MVcost     0.1611s  80.04%
GScost     0.0168s  8.33%
subgencost 0.0100s  4.95%
subcost    0.0003s  0.16%

Iteration 8
    CPU time for df vj and vk    653.09 sec, wall time     39.81 sec
    CPU time for df vj and vk    528.46 sec, wall time     27.65 sec
max_norm = 7.47e-05
Static polarizability procedure aborted
sTDDFT Stapol precond Converged
after 4 steps 0.2297 s
conv threhsold = 1.00e-02
final subspace: 12
max_norm =  4.23e-03
initial_cost 0.0051s  2.20%
MVcost     0.1852s  80.60%
GScost     0.0164s  7.12%
subgencost 0.0097s  4.23%
subcost    0.0003s  0.14%

Iteration 9
    CPU time for df vj and vk    648.49 sec, wall time     39.91 sec
    CPU time for df vj and vk    530.08 sec, wall time     27.83 sec
max_norm = 2.04e-05
Static polarizability procedure aborted
sTDDFT Stapol precond Converged
after 4 steps 0.1422 s
conv threhsold = 1.00e-02
final subspace: 8
max_norm =  3.83e-03
initial_cost 0.0011s  0.76%
MVcost     0.1190s  83.73%
GScost     0.0079s  5.56%
subgencost 0.0066s  4.65%
subcost    0.0003s  0.20%

Iteration 10
    CPU time for df vj and vk    433.20 sec, wall time     27.12 sec
    CPU time for df vj and vk    352.34 sec, wall time     18.88 sec
max_norm = 6.77e-06
static polarizability precodure aborted

Static polarizability Converged
after 11 steps; 902.8258 s
final subspace (32, 32)
max_norm =  6.77e-06
initial_cost 0.2194s  0.02%
MVcost     899.3591s  99.62%
Pcost      2.4052s  0.27%
Static polarizability tensor alpha
[[582.40032366 -36.28467488  30.70168489]
 [-36.28467488 240.52168761 -11.2434401 ]
 [ 30.70168489 -11.2434401  174.53516938]]


initial guess Adiag
preconditioner Adiag
alpha tensor of initial guess:
[[415.31673063 -40.70945717  29.63249268]
 [-40.70945717 259.92211836 -13.91303665]
 [ 29.63249268 -13.91303665 205.45469524]]
new_m = 3

Iteration 0
    CPU time for df vj and vk    652.61 sec, wall time     39.64 sec
    CPU time for df vj and vk    528.58 sec, wall time     27.56 sec
max_norm = 7.18e-01

Iteration 1
    CPU time for df vj and vk    658.47 sec, wall time     40.03 sec
    CPU time for df vj and vk    529.19 sec, wall time     27.46 sec
max_norm = 2.91e-01

Iteration 2
    CPU time for df vj and vk    647.67 sec, wall time     39.69 sec
    CPU time for df vj and vk    526.22 sec, wall time     27.63 sec
max_norm = 1.50e-01

Iteration 3
    CPU time for df vj and vk    649.23 sec, wall time     39.94 sec
    CPU time for df vj and vk    527.42 sec, wall time     27.36 sec
max_norm = 6.12e-02

Iteration 4
    CPU time for df vj and vk    655.52 sec, wall time     40.54 sec
    CPU time for df vj and vk    525.71 sec, wall time     27.52 sec
max_norm = 2.17e-02

Iteration 5
    CPU time for df vj and vk    654.83 sec, wall time     40.92 sec
    CPU time for df vj and vk    528.27 sec, wall time     27.54 sec
max_norm = 6.45e-03

Iteration 6
    CPU time for df vj and vk    647.78 sec, wall time     39.25 sec
    CPU time for df vj and vk    528.86 sec, wall time     27.68 sec
max_norm = 2.04e-03

Iteration 7
    CPU time for df vj and vk    653.62 sec, wall time     40.11 sec
    CPU time for df vj and vk    528.18 sec, wall time     27.72 sec
max_norm = 5.88e-04

Iteration 8
    CPU time for df vj and vk    652.29 sec, wall time     40.88 sec
    CPU time for df vj and vk    528.17 sec, wall time     27.35 sec
max_norm = 2.14e-04

Iteration 9
    CPU time for df vj and vk    645.53 sec, wall time     39.32 sec
    CPU time for df vj and vk    527.51 sec, wall time     27.56 sec
max_norm = 7.14e-05

Iteration 10
    CPU time for df vj and vk    654.81 sec, wall time     40.49 sec
    CPU time for df vj and vk    529.69 sec, wall time     27.86 sec
max_norm = 2.40e-05

Iteration 11
    CPU time for df vj and vk    649.62 sec, wall time     39.98 sec
    CPU time for df vj and vk    529.82 sec, wall time     27.87 sec
max_norm = 7.96e-06
static polarizability precodure aborted

Static polarizability Converged
after 12 steps; 1001.4105 s
final subspace (36, 36)
max_norm =  7.96e-06
initial_cost 0.0158s  0.00%
MVcost     1000.3912s  99.90%
Pcost      0.0229s  0.00%
Static polarizability tensor alpha
[[582.40032366 -36.28467488  30.70168489]
 [-36.28467488 240.52168761 -11.2434401 ]
 [ 30.70168489 -11.2434401  174.53516938]]
xyzfile = 49_Retinal.xyz
checkfile = True
method = RKS
functional = wb97x
basis_set = def2-tzvp
density_fit = True
grid_level = 3
nstates = 4
pytd = False
TDA = False
TDDFT = False
dynpol = False
dynpol_omega = []
stapol = True
sTDA = False
sTDDFT = False
Truncate_test = False
truncate_virtual = 40.0
ip_options = [0, 1]
conv_tolerance = 1e-05
initial_TOL = 0.01
precond_TOL = 0.01
extrainitial = 8
max = 30
eigensolver_tol = 1e-05
memory = 60000
verbose = 5
beta = []
alpha = []
|-------- In-house Developed stapol Ends ----------|
