curpath /scratch/pbsjobs/job.16219545.hpc
lib.num_threads() =  20
at beginning memory used: 0.05 GB
mol.max_memory 50000


System: uname_result(system='Linux', node='compt209', release='3.10.0-1127.el7.x86_64', version='#1 SMP Tue Feb 18 16:39:12 EST 2020', machine='x86_64', processor='x86_64')  Threads 20
Python 3.7.0 (default, Aug 23 2018, 14:24:33) 
[GCC 6.3.0]
numpy 1.18.1  scipy 1.4.1
Date: Mon Aug 30 19:39:49 2021
PySCF version 1.7.4
PySCF path  /home/zzz6/.local/lib/python3.7/site-packages/pyscf

[CONFIG] conf_file None
[INPUT] verbose = 5
[INPUT] max_memory = 50000 
[INPUT] num. atoms = 36
[INPUT] num. electrons = 160
[INPUT] charge = 0
[INPUT] spin (= nelec alpha-beta = 2S) = 0
[INPUT] symmetry False subgroup None
[INPUT] Mole.unit = angstrom
[INPUT]  1 C     -1.928637735402   2.412551697923  -0.065322077045 AA   -3.644597113411   4.559061970429  -0.123440835503 Bohr
[INPUT]  2 C     -1.200387553371   1.086099618675  -0.062377049633 AA   -2.268403719208   2.052430823290  -0.117875540264 Bohr
[INPUT]  3 C     -1.904642249648  -0.150495152307  -0.084536845656 AA   -3.599252217111  -0.284394620936  -0.159751485725 Bohr
[INPUT]  4 N     -3.288368778747  -0.160442105974  -0.091712139103 AA   -6.214116388402  -0.303191639138  -0.173310825202 Bohr
[INPUT]  5 C     -4.037908810511   1.080552203179  -0.284412556591 AA   -7.630541767833   2.041947727303  -0.537461838344 Bohr
[INPUT]  6 C     -3.363646236270   2.244744444009   0.438239812140 AA   -6.356370166474   4.241952218815   0.828153221826 Bohr
[INPUT]  7 C      0.198875958118   1.059798137040  -0.036896424872 AA    0.375821093604   2.002728226330  -0.069724137984 Bohr
[INPUT]  8 C      0.947794643397  -0.146537731788  -0.018818559919 AA    1.791072298350  -0.276916179994  -0.035561924305 Bohr
[INPUT]  9 C      0.215991476300  -1.359202344389  -0.036145429506 AA    0.408164735447  -2.568520178762  -0.068304962422 Bohr
[INPUT] 10 C     -1.170817418072  -1.386091126483  -0.076843980175 AA   -2.212524262027  -2.619332612743  -0.145214076853 Bohr
[INPUT] 11 C      2.381450413703  -0.023173380703   0.015524630730 AA    4.500289061131  -0.043791342910   0.029337300265 Bohr
[INPUT] 12 C      2.988324852281   1.205502666828   0.028953632035 AA    5.647115542043   2.278069882737   0.054714434857 Bohr
[INPUT] 13 C      2.221429587584   2.439414242421   0.010235705978 AA    4.197893525539   4.609824822539   0.019342680990 Bohr
[INPUT] 14 O      0.820742040671   2.277536700058  -0.027093158438 AA    1.550977675784   4.303920601756  -0.051198649297 Bohr
[INPUT] 15 C     -4.038020814019  -1.406383056419  -0.240411679296 AA   -7.630753423789  -2.657678802861  -0.454312231016 Bohr
[INPUT] 16 C     -3.321943910310  -2.568563312296   0.443347414344 AA   -6.277564191653  -4.853881193844   0.837805191144 Bohr
[INPUT] 17 C     -1.911903375378  -2.706964252070  -0.134930652875 AA   -3.612973756096  -5.115421065401  -0.254981979742 Bohr
[INPUT] 18 C      3.240937766877  -1.270088365767   0.038382852251 AA    6.124484766157  -2.400119165295   0.072533078634 Bohr
[INPUT] 19 O      2.653912411086   3.571057329666   0.022500204955 AA    5.015167615537   6.748320328189   0.042519225111 Bohr
[INPUT] 20 H     -5.035358554033  -1.245623250742   0.205744852763 AA   -9.515448606108  -2.353886798292   0.388801423260 Bohr
[INPUT] 21 H     -4.199442800048  -1.639391664164  -1.316236781061 AA   -7.935796767868  -3.098001256165  -2.487327031284 Bohr
[INPUT] 22 H      0.754338123190  -2.310399129173  -0.024312014466 AA    1.425492458148  -4.366021592570  -0.045943048878 Bohr
[INPUT] 23 H      4.073685881351   1.311346617474   0.055910329142 AA    7.698150633262   2.478085961401   0.105655209613 Bohr
[INPUT] 24 F      3.020338289331  -2.043165509035  -1.055509212931 AA    5.707612170373  -3.861023239234  -1.994623334394 Bohr
[INPUT] 25 F      4.559682776223  -0.987772859895   0.068673459515 AA    8.616551661958  -1.866620178479   0.129774030510 Bohr
[INPUT] 26 F      2.969273666325  -2.038595235702   1.123927940497 AA    5.611114018238  -3.852386674320   2.123915991286 Bohr
[INPUT] 27 H     -4.139089650385   1.309040385502  -1.368151112198 AA   -7.821745844249   2.473727814594  -2.585430899074 Bohr
[INPUT] 28 H     -5.056552121833   0.913728503777   0.106860755332 AA   -9.555498644853   1.726696624346   0.201937561043 Bohr
[INPUT] 29 H     -1.337404982021  -3.481506748868   0.401552788411 AA   -2.527329133649  -6.579094256186   0.758824794652 Bohr
[INPUT] 30 H     -1.985091902004  -3.044941151684  -1.188314216538 AA   -3.751280026879  -5.754104842101  -2.245588419184 Bohr
[INPUT] 31 H     -3.269038267401  -2.372912694554   1.530002720085 AA   -6.177587016111  -4.484155110211   2.891286110801 Bohr
[INPUT] 32 H     -3.903545579246  -3.494796257813   0.297458900975 AA   -7.376632059531  -6.604207788421   0.562115856157 Bohr
[INPUT] 33 H     -3.946622127213   3.167286336806   0.276475517671 AA   -7.458034937582   5.985303734641   0.522463008546 Bohr
[INPUT] 34 H     -3.361449866332   2.037495683229   1.523984289997 AA   -6.352219628823   3.850308821287   2.879912926234 Bohr
[INPUT] 35 H     -1.371773371513   3.138277114440   0.549587543389 AA   -2.592275977131   5.930484249282   1.038569938477 Bohr
[INPUT] 36 H     -1.934667782678   2.829944648799  -1.091813459909 AA   -3.655992251281   5.347820333908  -2.063228418341 Bohr
[INPUT] ---------------- BASIS SET ---------------- 
[INPUT] l, kappa, [nprim/nctr], expnt,             c_1 c_2 ...
[INPUT] N
[INPUT] 0    0    [6    /1   ]  19730.800647      0.00021887984991
                                2957.8958745      0.0016960708803
                                673.22133595      0.0087954603538
                                190.68249494      0.035359382605
                                62.295441898      0.11095789217
                                22.654161182      0.24982972552
[INPUT] 0    0    [2    /1   ]  8.9791477428      0.40623896148
                                3.686300237       0.24338217176
[INPUT] 0    0    [1    /1   ]  0.84660076805        1
[INPUT] 0    0    [1    /1   ]  0.33647133771        1
[INPUT] 0    0    [1    /1   ]  0.13647653675        1
[INPUT] 1    0    [4    /1   ]  49.20038051       0.0055552416751
                                11.346790537      0.038052379723
                                3.4273972411      0.14953671029
                                1.1785525134      0.3494930523
[INPUT] 1    0    [1    /1   ]  0.41642204972        1
[INPUT] 1    0    [1    /1   ]  0.14260826011        1
[INPUT] 2    0    [1    /1   ]  1.654                1
[INPUT] 2    0    [1    /1   ]  0.469                1
[INPUT] 3    0    [1    /1   ]  1.093                1
[INPUT] H
[INPUT] 0    0    [3    /1   ]  34.061341         0.0060251978
                                5.1235746         0.045021094
                                1.1646626         0.20189726
[INPUT] 0    0    [1    /1   ]  0.32723041           1
[INPUT] 0    0    [1    /1   ]  0.10307241           1
[INPUT] 1    0    [1    /1   ]  0.8                  1
[INPUT] C
[INPUT] 0    0    [6    /1   ]  13575.349682      0.00022245814352
                                2035.233368       0.0017232738252
                                463.22562359      0.0089255715314
                                131.20019598      0.035727984502
                                42.853015891      0.11076259931
                                15.584185766      0.24295627626
[INPUT] 0    0    [2    /1   ]  6.2067138508      0.41440263448
                                2.5764896527      0.23744968655
[INPUT] 0    0    [1    /1   ]  0.57696339419        1
[INPUT] 0    0    [1    /1   ]  0.22972831358        1
[INPUT] 0    0    [1    /1   ]  0.095164440028       1
[INPUT] 1    0    [4    /1   ]  34.697232244      0.0053333657805
                                7.9582622826      0.035864109092
                                2.3780826883      0.14215873329
                                0.81433208183     0.34270471845
[INPUT] 1    0    [1    /1   ]  0.28887547253        1
[INPUT] 1    0    [1    /1   ]  0.10056823671        1
[INPUT] 2    0    [1    /1   ]  1.097                1
[INPUT] 2    0    [1    /1   ]  0.318                1
[INPUT] 3    0    [1    /1   ]  0.761                1
[INPUT] O
[INPUT] 0    0    [6    /1   ]  27032.382631      0.00021726302465
                                4052.3871392      0.0016838662199
                                922.3272271       0.0087395616265
                                261.24070989      0.035239968808
                                85.354641351      0.11153519115
                                31.035035245      0.25588953961
[INPUT] 0    0    [2    /1   ]  12.260860728      0.39768730901
                                4.9987076005      0.2462784943
[INPUT] 0    0    [1    /1   ]  1.1703108158         1
[INPUT] 0    0    [1    /1   ]  0.46474740994        1
[INPUT] 0    0    [1    /1   ]  0.18504536357        1
[INPUT] 1    0    [4    /1   ]  63.274954801      0.0060685103418
                                14.627049379      0.041912575824
                                4.4501223456      0.16153841088
                                1.5275799647      0.35706951311
[INPUT] 1    0    [1    /1   ]  0.52935117943        1
[INPUT] 1    0    [1    /1   ]  0.1747842127         1
[INPUT] 2    0    [1    /1   ]  2.314                1
[INPUT] 2    0    [1    /1   ]  0.645                1
[INPUT] 3    0    [1    /1   ]  1.428                1
[INPUT] F
[INPUT] 0    0    [6    /1   ]  35479.100441      0.00021545014888
                                5318.4728983      0.0016700686527
                                1210.4810975      0.0086733211476
                                342.8551814       0.035049933175
                                112.01943181      0.11165320133
                                40.714740248      0.25988506647
[INPUT] 0    0    [2    /1   ]  16.039678111      0.3942296688
                                6.503818674       0.24998238551
[INPUT] 0    0    [1    /1   ]  1.5440477509         1
[INPUT] 0    0    [1    /1   ]  0.61223452862        1
[INPUT] 0    0    [1    /1   ]  0.24027979698        1
[INPUT] 1    0    [4    /1   ]  80.233900483      0.0063685999134
                                18.594010743      0.04430314353
                                5.6867902653      0.16867248708
                                1.9511006294      0.36166346255
[INPUT] 1    0    [1    /1   ]  0.66970211298        1
[INPUT] 1    0    [1    /1   ]  0.2165130041         1
[INPUT] 2    0    [1    /1   ]  3.107                1
[INPUT] 2    0    [1    /1   ]  0.855                1
[INPUT] 3    0    [1    /1   ]  1.917                1

nuclear repulsion = 1866.32521598388
number of shells = 298
number of NR pGTOs = 1124
number of NR cGTOs = 766
basis = def2-tzvp
ecp = {}
CPU time:         2.69
RKS
Density fitting turned on
Molecule built
Calculating SCF Energy...


******** <class 'pyscf.df.df_jk.density_fit.<locals>.DFHF'> ********
method = DFHF-RKS-RHF
initial guess = chkfile
damping factor = 0
level_shift factor = 0
DIIS = <class 'pyscf.scf.diis.CDIIS'>
diis_start_cycle = 1
diis_space = 8
SCF conv_tol = 1e-10
SCF conv_tol_grad = None
SCF max_cycles = 50
direct_scf = True
direct_scf_tol = 1e-13
chkfile to save SCF result = 36_Coumarin_153_pbe0.chk
max_memory 50000 MB (current use 56 MB)
XC functionals = pbe0
small_rho_cutoff = 1e-07
radial grids: 
    Treutler-Ahlrichs [JCP 102, 346 (1995); DOI:10.1063/1.469408] (M4) radial grids
    
becke partition: Becke, JCP 88, 2547 (1988); DOI:10.1063/1.454033
pruning grids: <function nwchem_prune at 0x7f41bf061e18>
grids dens level: 3
symmetrized grids: False
atomic radii adjust function: <function treutler_atomic_radii_adjust at 0x7f41bf061d90>
Set gradient conv threshold to 1e-05
atom C rad-grids = 75, ang-grids = [ 50  50  50  50  50  50  50  50  50  50  50  50  50  50  50  50  50  50
  50  50  50  50  50  86  86  86  86  86  86  86  86  86  86 266 266 266
 266 266 266 266 302 302 302 302 302 302 302 302 302 302 302 302 302 302
 302 302 302 302 302 302 266 266 266 266 266 266 266 266 266 266 266 266
 266 266 266]
atom N rad-grids = 75, ang-grids = [ 50  50  50  50  50  50  50  50  50  50  50  50  50  50  50  50  50  50
  50  50  50  50  50  86  86  86  86  86  86  86  86  86 266 266 266 266
 266 266 266 302 302 302 302 302 302 302 302 302 302 302 302 302 302 302
 302 302 302 302 266 266 266 266 266 266 266 266 266 266 266 266 266 266
 266 266 266]
atom O rad-grids = 75, ang-grids = [ 50  50  50  50  50  50  50  50  50  50  50  50  50  50  50  50  50  50
  50  50  50  50  86  86  86  86  86  86  86  86  86 266 266 266 266 266
 266 266 302 302 302 302 302 302 302 302 302 302 302 302 302 302 302 302
 302 302 302 266 266 266 266 266 266 266 266 266 266 266 266 266 266 266
 266 266 266]
atom H rad-grids = 50, ang-grids = [ 50  50  50  50  50  50  50  50  50  50  50  50  50  50  86  86  86  86
 266 266 266 266 302 302 302 302 302 302 302 302 302 302 302 302 302 266
 266 266 266 266 266 266 266 266 266 266 266 266 266 266]
atom F rad-grids = 75, ang-grids = [ 50  50  50  50  50  50  50  50  50  50  50  50  50  50  50  50  50  50
  50  50  50  86  86  86  86  86  86  86  86  86 266 266 266 266 266 266
 302 302 302 302 302 302 302 302 302 302 302 302 302 302 302 302 302 302
 266 266 266 266 266 266 266 266 266 266 266 266 266 266 266 266 266 266
 266 266 266]
tot grids = 448664
Drop grids 82893
    CPU time for setting up grids     47.65 sec, wall time      2.69 sec
nelec by numeric integration = 159.99991047369443
    CPU time for vxc     81.84 sec, wall time      4.86 sec
******** <class 'pyscf.df.df.DF'> ********
auxbasis = None
max_memory = 50000
_cderi_to_save = /tmp/job.16219545.hpc/tmp9tgdlomd
Default auxbasis def2-tzvp-jkfit is used for N def2-tzvp
Default auxbasis def2-tzvp-jkfit is used for H def2-tzvp
Default auxbasis def2-tzvp-jkfit is used for C def2-tzvp
Default auxbasis def2-tzvp-jkfit is used for O def2-tzvp
Default auxbasis def2-tzvp-jkfit is used for F def2-tzvp
num shells = 634, num cGTOs = 1914
size of aux basis 1914
int3c2e [1/1], AO [0:298], nrow = 293761
    CPU time for cholesky_eri     83.55 sec, wall time     13.32 sec
    CPU time for df vj and vk    225.63 sec, wall time     22.63 sec
E1 = -5245.659979768011  Ecoul = 2403.664331582687  Exc = -146.44042674009808
init E= -1122.11085894154
cond(S) = 3234380.581757775
    CPU time for initialize scf    360.54 sec, wall time     30.55 sec
  HOMO = -0.214857630935162  LUMO = -0.0763739191423514
  mo_energy =
[-2.48123329e+01 -2.48096098e+01 -2.48095873e+01 -1.92719919e+01
 -1.91890691e+01 -1.44269966e+01 -1.04871504e+01 -1.03578385e+01
 -1.03106066e+01 -1.02943323e+01 -1.02890487e+01 -1.02783279e+01
 -1.02761638e+01 -1.02558336e+01 -1.02550397e+01 -1.02490247e+01
 -1.02471481e+01 -1.02463344e+01 -1.02448192e+01 -1.02445700e+01
 -1.02409809e+01 -1.02387048e+01 -1.35114915e+00 -1.26550722e+00
 -1.26202725e+00 -1.13962326e+00 -1.05575773e+00 -1.00295950e+00
 -9.01790958e-01 -8.69982583e-01 -8.61865312e-01 -8.11409915e-01
 -7.93703775e-01 -7.90345072e-01 -7.58774056e-01 -7.21733657e-01
 -6.99049906e-01 -6.86119556e-01 -6.64812330e-01 -6.63439153e-01
 -6.29609496e-01 -6.20823098e-01 -6.18372009e-01 -5.95562617e-01
 -5.74723519e-01 -5.58092933e-01 -5.42797408e-01 -5.40085310e-01
 -5.15665147e-01 -5.00096116e-01 -4.97381448e-01 -4.93959717e-01
 -4.90839863e-01 -4.88738414e-01 -4.76853973e-01 -4.75944758e-01
 -4.58868336e-01 -4.57333821e-01 -4.55542122e-01 -4.46585783e-01
 -4.43186584e-01 -4.37804214e-01 -4.35325891e-01 -4.34216762e-01
 -4.24380948e-01 -4.23289431e-01 -4.17213743e-01 -3.97770707e-01
 -3.81418210e-01 -3.77369442e-01 -3.72058795e-01 -3.65439876e-01
 -3.62920437e-01 -3.57409497e-01 -3.42745151e-01 -3.39979009e-01
 -2.96688486e-01 -2.92557236e-01 -2.51537502e-01 -2.14857631e-01
 -7.63739191e-02 -1.59082273e-02 -5.76926264e-03  2.58661109e-02
  4.40697539e-02  5.67364188e-02  5.92186388e-02  6.85259293e-02
  7.40349802e-02  8.29552106e-02  8.54241541e-02  8.94961363e-02
  9.81413992e-02  9.99604715e-02  1.08163288e-01  1.14250342e-01
  1.17367634e-01  1.22490332e-01  1.28685338e-01  1.36510634e-01
  1.39854984e-01  1.42997710e-01  1.45094043e-01  1.51492830e-01
  1.55250109e-01  1.58256369e-01  1.71692085e-01  1.82159245e-01
  1.83130718e-01  1.87114154e-01  1.92407056e-01  1.94382392e-01
  1.95632441e-01  2.00224220e-01  2.02470478e-01  2.11803670e-01
  2.14495417e-01  2.21958021e-01  2.28104694e-01  2.29797505e-01
  2.37670374e-01  2.39437065e-01  2.47142529e-01  2.49442080e-01
  2.53060211e-01  2.57843567e-01  2.64438756e-01  2.69458986e-01
  2.83377730e-01  2.85872772e-01  2.93367149e-01  2.98362831e-01
  3.05626960e-01  3.11877167e-01  3.22761164e-01  3.24952777e-01
  3.31257573e-01  3.36334994e-01  3.39479104e-01  3.42965667e-01
  3.48641829e-01  3.50742842e-01  3.59998330e-01  3.62774867e-01
  3.64415523e-01  3.71621116e-01  3.84457631e-01  3.93153100e-01
  3.93259334e-01  3.98682994e-01  4.00113697e-01  4.07738737e-01
  4.17391928e-01  4.20205076e-01  4.24427601e-01  4.26359520e-01
  4.27629741e-01  4.32436035e-01  4.34862734e-01  4.37311242e-01
  4.41052406e-01  4.50081901e-01  4.51655541e-01  4.54045168e-01
  4.57788681e-01  4.60629481e-01  4.65018459e-01  4.72725341e-01
  4.76333966e-01  4.81435682e-01  4.90180000e-01  4.92926607e-01
  4.97924765e-01  5.00345953e-01  5.04772916e-01  5.13149928e-01
  5.17369431e-01  5.24197423e-01  5.28987375e-01  5.43977156e-01
  5.50562879e-01  5.60048341e-01  5.68538343e-01  5.76040984e-01
  5.80295648e-01  5.94821350e-01  6.02855150e-01  6.04591075e-01
  6.11189691e-01  6.22216834e-01  6.27528352e-01  6.35995098e-01
  6.41161462e-01  6.46294862e-01  6.54077464e-01  6.62963171e-01
  6.71364121e-01  6.74325693e-01  6.80103117e-01  6.82594697e-01
  6.92391344e-01  7.00318510e-01  7.11796207e-01  7.14250131e-01
  7.19717371e-01  7.24111213e-01  7.26945110e-01  7.35183719e-01
  7.42137936e-01  7.46602381e-01  7.50384395e-01  7.55319965e-01
  7.64324262e-01  7.68238989e-01  7.74626832e-01  7.87739732e-01
  7.91491101e-01  7.93854840e-01  8.04519599e-01  8.08769813e-01
  8.14495823e-01  8.19246442e-01  8.26211018e-01  8.33452783e-01
  8.37791933e-01  8.42441916e-01  8.50087864e-01  8.55029593e-01
  8.58741606e-01  8.60631840e-01  8.67640409e-01  8.68801985e-01
  8.83093498e-01  8.87203869e-01  8.94264996e-01  9.00417117e-01
  9.03969273e-01  9.13364866e-01  9.22114802e-01  9.37499117e-01
  9.39484493e-01  9.55953693e-01  9.60641994e-01  9.68609828e-01
  9.77815374e-01  9.85654962e-01  9.97283001e-01  1.00279566e+00
  1.00652039e+00  1.01880306e+00  1.02423332e+00  1.03151600e+00
  1.04213333e+00  1.05012691e+00  1.05754282e+00  1.06906981e+00
  1.08118740e+00  1.08843322e+00  1.09156647e+00  1.11043372e+00
  1.11388382e+00  1.12288583e+00  1.13302895e+00  1.13828566e+00
  1.13878991e+00  1.14832098e+00  1.16736127e+00  1.18922634e+00
  1.19479785e+00  1.19750083e+00  1.21113035e+00  1.22209723e+00
  1.22788204e+00  1.22898334e+00  1.23443947e+00  1.24802250e+00
  1.26231567e+00  1.27643697e+00  1.28905566e+00  1.29411240e+00
  1.30243196e+00  1.30843088e+00  1.31373217e+00  1.31495358e+00
  1.32816032e+00  1.35453027e+00  1.35767207e+00  1.36634488e+00
  1.37188163e+00  1.38126501e+00  1.38246710e+00  1.38659586e+00
  1.39685415e+00  1.41143949e+00  1.41234606e+00  1.42947802e+00
  1.43746837e+00  1.45829284e+00  1.46716530e+00  1.47705438e+00
  1.48241733e+00  1.48970059e+00  1.50058114e+00  1.50907206e+00
  1.51672381e+00  1.52514398e+00  1.54014671e+00  1.55791018e+00
  1.56782528e+00  1.58135993e+00  1.58394489e+00  1.58676918e+00
  1.58757470e+00  1.60515815e+00  1.61683856e+00  1.62040280e+00
  1.62242833e+00  1.63230011e+00  1.64344358e+00  1.64710118e+00
  1.64842791e+00  1.66144192e+00  1.66643859e+00  1.67534926e+00
  1.67897618e+00  1.68476670e+00  1.69881879e+00  1.70672612e+00
  1.71190047e+00  1.72101239e+00  1.74044891e+00  1.74904451e+00
  1.75565737e+00  1.75803848e+00  1.77680457e+00  1.78283497e+00
  1.78927572e+00  1.79206133e+00  1.79481242e+00  1.80367489e+00
  1.83558384e+00  1.85870010e+00  1.86187613e+00  1.87689995e+00
  1.87928597e+00  1.88733713e+00  1.89082844e+00  1.89987747e+00
  1.91734954e+00  1.92746354e+00  1.93099440e+00  1.93395159e+00
  1.94366502e+00  1.95563855e+00  1.95856639e+00  1.96562525e+00
  1.97185389e+00  1.97930863e+00  1.98782586e+00  2.00257222e+00
  2.02016025e+00  2.03150500e+00  2.04915316e+00  2.05232364e+00
  2.06089287e+00  2.07357953e+00  2.08811340e+00  2.10343409e+00
  2.11390137e+00  2.11671201e+00  2.12261290e+00  2.13068521e+00
  2.13672247e+00  2.14332165e+00  2.15147963e+00  2.16709881e+00
  2.17362121e+00  2.17939478e+00  2.18181671e+00  2.19647930e+00
  2.20188939e+00  2.21129205e+00  2.22343180e+00  2.22711474e+00
  2.23350408e+00  2.24802654e+00  2.26508307e+00  2.27421117e+00
  2.27449440e+00  2.29474315e+00  2.30107420e+00  2.31034775e+00
  2.32632295e+00  2.33186024e+00  2.33716503e+00  2.35277630e+00
  2.36682219e+00  2.37095081e+00  2.39123797e+00  2.39496143e+00
  2.40420968e+00  2.41439426e+00  2.42214643e+00  2.43137186e+00
  2.44583880e+00  2.47094002e+00  2.47606422e+00  2.48188756e+00
  2.48462269e+00  2.49537134e+00  2.51022121e+00  2.51524748e+00
  2.52464853e+00  2.52723417e+00  2.53180499e+00  2.53908987e+00
  2.55273206e+00  2.56167515e+00  2.57020463e+00  2.57340118e+00
  2.57450894e+00  2.58194411e+00  2.59433470e+00  2.59915134e+00
  2.60266970e+00  2.61059478e+00  2.61434952e+00  2.62043228e+00
  2.62338311e+00  2.63466666e+00  2.63854514e+00  2.64422666e+00
  2.65044230e+00  2.66138681e+00  2.66544145e+00  2.67879343e+00
  2.68302959e+00  2.69767895e+00  2.70853913e+00  2.71773046e+00
  2.72962419e+00  2.73193555e+00  2.73747588e+00  2.74466817e+00
  2.74881681e+00  2.75105253e+00  2.77221560e+00  2.77813378e+00
  2.78037712e+00  2.79186291e+00  2.79784596e+00  2.80999492e+00
  2.82665891e+00  2.83266015e+00  2.83962030e+00  2.84735213e+00
  2.85197459e+00  2.85748339e+00  2.86018758e+00  2.87186374e+00
  2.88910384e+00  2.90599289e+00  2.90748240e+00  2.92264876e+00
  2.93932088e+00  2.94174567e+00  2.94601476e+00  2.95606774e+00
  2.95687776e+00  2.96648246e+00  2.97296678e+00  2.98288514e+00
  2.99839347e+00  2.99901343e+00  3.00716392e+00  3.01902113e+00
  3.02834591e+00  3.03661851e+00  3.05003688e+00  3.05810142e+00
  3.06196491e+00  3.07346962e+00  3.07744940e+00  3.07949020e+00
  3.08898747e+00  3.09388089e+00  3.10464857e+00  3.10617604e+00
  3.12191197e+00  3.12483613e+00  3.13249165e+00  3.13712116e+00
  3.15517270e+00  3.15590482e+00  3.16203252e+00  3.17222211e+00
  3.17309121e+00  3.18360617e+00  3.18648123e+00  3.19894553e+00
  3.21081149e+00  3.21680665e+00  3.21758462e+00  3.22435512e+00
  3.23601028e+00  3.24018036e+00  3.24673354e+00  3.24846576e+00
  3.25085520e+00  3.26183448e+00  3.27149073e+00  3.27953008e+00
  3.28637204e+00  3.29290861e+00  3.30136612e+00  3.30280236e+00
  3.31274776e+00  3.31347548e+00  3.31789460e+00  3.32427956e+00
  3.33104507e+00  3.34136465e+00  3.34756508e+00  3.35551044e+00
  3.35948216e+00  3.36462098e+00  3.37354981e+00  3.37904280e+00
  3.38108200e+00  3.38946034e+00  3.39528994e+00  3.40302080e+00
  3.41175952e+00  3.41755674e+00  3.42961855e+00  3.43797270e+00
  3.44377274e+00  3.44730015e+00  3.45797065e+00  3.47743004e+00
  3.48057164e+00  3.48594169e+00  3.48945576e+00  3.50790980e+00
  3.51008124e+00  3.51840618e+00  3.52233750e+00  3.53029132e+00
  3.54037589e+00  3.54737667e+00  3.55986643e+00  3.56597239e+00
  3.57339599e+00  3.58298092e+00  3.59039986e+00  3.59822689e+00
  3.60287085e+00  3.61040435e+00  3.62740942e+00  3.63272009e+00
  3.63952964e+00  3.65971481e+00  3.66673053e+00  3.68196024e+00
  3.69382759e+00  3.69970905e+00  3.71186645e+00  3.71541101e+00
  3.71719349e+00  3.73756948e+00  3.74267522e+00  3.75163206e+00
  3.76536159e+00  3.79039855e+00  3.80340271e+00  3.81263981e+00
  3.83355296e+00  3.84004784e+00  3.84434347e+00  3.87699372e+00
  3.88840805e+00  3.89405518e+00  3.90377642e+00  3.90990445e+00
  3.92024653e+00  3.92602676e+00  3.94777877e+00  3.95775000e+00
  3.96314977e+00  3.96664773e+00  3.98667028e+00  3.99762729e+00
  4.00603270e+00  4.01773021e+00  4.02147256e+00  4.03359461e+00
  4.03815828e+00  4.05413859e+00  4.05932902e+00  4.07189990e+00
  4.08268526e+00  4.09598910e+00  4.10135936e+00  4.11019446e+00
  4.11845488e+00  4.14253118e+00  4.15055496e+00  4.15740770e+00
  4.16747440e+00  4.17944729e+00  4.19522760e+00  4.20089491e+00
  4.22095487e+00  4.23135719e+00  4.24382972e+00  4.26628012e+00
  4.27478717e+00  4.28282297e+00  4.29335556e+00  4.30677456e+00
  4.30915661e+00  4.32143541e+00  4.32852044e+00  4.36655598e+00
  4.37738846e+00  4.38748688e+00  4.41139374e+00  4.43264697e+00
  4.43672430e+00  4.45121214e+00  4.46570984e+00  4.48130089e+00
  4.49757583e+00  4.50477860e+00  4.52968735e+00  4.54781555e+00
  4.56073414e+00  4.58380371e+00  4.61376156e+00  4.61780531e+00
  4.63792473e+00  4.64393349e+00  4.65909952e+00  4.67212685e+00
  4.69382102e+00  4.72248321e+00  4.75431478e+00  4.78286764e+00
  4.79312029e+00  4.82417060e+00  4.84133393e+00  4.86892062e+00
  4.90045363e+00  4.91912565e+00  4.94942323e+00  4.95856913e+00
  5.00978464e+00  5.01893784e+00  5.03531124e+00  5.06302900e+00
  5.09444942e+00  5.10005493e+00  5.12654985e+00  5.13474120e+00
  5.20105660e+00  5.20298672e+00  5.22144243e+00  5.23782681e+00
  5.25327319e+00  5.26339421e+00  5.29830581e+00  5.31174992e+00
  5.31379830e+00  5.35195637e+00  5.39663471e+00  5.43267593e+00
  5.45368636e+00  5.46653511e+00  5.49478470e+00  5.51347084e+00
  5.53386996e+00  5.58877352e+00  5.60194008e+00  5.69479937e+00
  5.71537118e+00  5.75924119e+00  5.84294282e+00  5.86887414e+00
  5.88253515e+00  5.96693385e+00  6.01508216e+00  6.10132327e+00
  6.11607452e+00  6.19356824e+00  6.36586445e+00  6.39479959e+00
  6.43518832e+00  6.50534360e+00  6.57763995e+00  6.61884786e+00
  6.80909423e+00  6.83023165e+00  6.84716499e+00  6.85011716e+00
  6.85733753e+00  6.86245577e+00  6.86652353e+00  6.87037456e+00
  6.87457960e+00  6.88398984e+00  6.89836255e+00  6.91377985e+00
  6.96015589e+00  6.97496629e+00  6.97786044e+00  7.02201774e+00
  7.04629540e+00  7.07636065e+00  7.12128507e+00  7.12520752e+00
  7.17816193e+00  7.33607387e+00  7.34836933e+00  7.37374892e+00
  7.41030892e+00  7.47228580e+00  7.52913356e+00  7.55714017e+00
  7.59466046e+00  8.29302733e+00  8.32159518e+00  8.33382718e+00
  8.46226900e+00  8.50579800e+00  8.58592531e+00  8.68479297e+00
  8.76226128e+00  8.80156052e+00  8.90110402e+00  8.95710744e+00
  9.01850622e+00  9.03575254e+00  9.09046917e+00  9.14756740e+00
  2.24280378e+01  2.25244734e+01  2.25312953e+01  2.25428463e+01
  2.26167856e+01  2.26582145e+01  2.26824874e+01  2.27270732e+01
  2.28459789e+01  2.29592539e+01  2.31057867e+01  2.31629632e+01
  2.31928838e+01  2.32680221e+01  2.34459391e+01  2.37534769e+01
  3.30876106e+01  4.40247676e+01  4.45495204e+01  5.72270825e+01
  5.73584819e+01  5.75896238e+01]
nelec by numeric integration = 159.99991047352697
    CPU time for vxc     83.58 sec, wall time      4.85 sec
    CPU time for df vj and vk    138.28 sec, wall time      9.24 sec
E1 = -5245.660161540629  Ecoul = 2403.66452029884  Exc = -146.4404336835672
cycle= 1 E= -1122.11085894147  delta_E= 6.64e-11  |g|= 1.9e-05  |ddm|= 3.96e-05
    CPU time for cycle= 1    225.98 sec, wall time     14.41 sec
  HOMO = -0.214856568204677  LUMO = -0.076373765186146
  mo_energy =
[-2.48123314e+01 -2.48096057e+01 -2.48095832e+01 -1.92719835e+01
 -1.91890779e+01 -1.44269956e+01 -1.04871493e+01 -1.03578432e+01
 -1.03106014e+01 -1.02943286e+01 -1.02890414e+01 -1.02783278e+01
 -1.02761628e+01 -1.02558271e+01 -1.02550505e+01 -1.02490231e+01
 -1.02471455e+01 -1.02463289e+01 -1.02448189e+01 -1.02445697e+01
 -1.02409800e+01 -1.02387025e+01 -1.35114752e+00 -1.26550601e+00
 -1.26202495e+00 -1.13962141e+00 -1.05576106e+00 -1.00295814e+00
 -9.01787963e-01 -8.69981137e-01 -8.61864179e-01 -8.11408900e-01
 -7.93702301e-01 -7.90343226e-01 -7.58773770e-01 -7.21732231e-01
 -6.99048684e-01 -6.86117994e-01 -6.64811227e-01 -6.63437304e-01
 -6.29608410e-01 -6.20821877e-01 -6.18370160e-01 -5.95561273e-01
 -5.74722019e-01 -5.58092731e-01 -5.42796219e-01 -5.40083978e-01
 -5.15663916e-01 -5.00094858e-01 -4.97379833e-01 -4.93958503e-01
 -4.90838988e-01 -4.88737256e-01 -4.76853059e-01 -4.75945166e-01
 -4.58866429e-01 -4.57332868e-01 -4.55541526e-01 -4.46586583e-01
 -4.43185866e-01 -4.37802461e-01 -4.35325152e-01 -4.34215994e-01
 -4.24379578e-01 -4.23287728e-01 -4.17212698e-01 -3.97769745e-01
 -3.81418459e-01 -3.77368386e-01 -3.72057382e-01 -3.65438917e-01
 -3.62919366e-01 -3.57408001e-01 -3.42744014e-01 -3.39977469e-01
 -2.96692329e-01 -2.92557141e-01 -2.51535104e-01 -2.14856568e-01
 -7.63737652e-02 -1.59059141e-02 -5.76785558e-03  2.58665111e-02
  4.40702450e-02  5.67366910e-02  5.92191878e-02  6.85262576e-02
  7.40351476e-02  8.29557607e-02  8.54242251e-02  8.94957411e-02
  9.81414304e-02  9.99611033e-02  1.08163776e-01  1.14250630e-01
  1.17368078e-01  1.22491509e-01  1.28685977e-01  1.36511336e-01
  1.39855730e-01  1.42998441e-01  1.45094721e-01  1.51493633e-01
  1.55251090e-01  1.58257353e-01  1.71693209e-01  1.82159607e-01
  1.83131267e-01  1.87114588e-01  1.92407414e-01  1.94383345e-01
  1.95633116e-01  2.00224735e-01  2.02471174e-01  2.11804587e-01
  2.14496266e-01  2.21958759e-01  2.28105466e-01  2.29798293e-01
  2.37671263e-01  2.39438372e-01  2.47143565e-01  2.49443063e-01
  2.53061033e-01  2.57844128e-01  2.64439480e-01  2.69460051e-01
  2.83378731e-01  2.85873162e-01  2.93368244e-01  2.98363417e-01
  3.05628081e-01  3.11878042e-01  3.22761529e-01  3.24953368e-01
  3.31258531e-01  3.36335797e-01  3.39479840e-01  3.42965851e-01
  3.48642230e-01  3.50742884e-01  3.59999373e-01  3.62775765e-01
  3.64416525e-01  3.71621723e-01  3.84458267e-01  3.93153562e-01
  3.93259928e-01  3.98683534e-01  4.00114282e-01  4.07739349e-01
  4.17392610e-01  4.20205661e-01  4.24427571e-01  4.26360227e-01
  4.27630122e-01  4.32436662e-01  4.34862794e-01  4.37311933e-01
  4.41053110e-01  4.50082587e-01  4.51656354e-01  4.54046016e-01
  4.57789246e-01  4.60630144e-01  4.65019144e-01  4.72725890e-01
  4.76334820e-01  4.81436233e-01  4.90180649e-01  4.92927411e-01
  4.97925459e-01  5.00346831e-01  5.04773403e-01  5.13150647e-01
  5.17369950e-01  5.24197168e-01  5.28988213e-01  5.43977774e-01
  5.50563851e-01  5.60049200e-01  5.68538657e-01  5.76042089e-01
  5.80296337e-01  5.94822342e-01  6.02856166e-01  6.04591642e-01
  6.11189053e-01  6.22217566e-01  6.27529080e-01  6.35996490e-01
  6.41162209e-01  6.46295618e-01  6.54078242e-01  6.62964235e-01
  6.71364927e-01  6.74326525e-01  6.80103667e-01  6.82595842e-01
  6.92392254e-01  7.00319452e-01  7.11796719e-01  7.14252007e-01
  7.19718156e-01  7.24112118e-01  7.26946068e-01  7.35184617e-01
  7.42138821e-01  7.46603332e-01  7.50385396e-01  7.55320878e-01
  7.64324881e-01  7.68239759e-01  7.74627718e-01  7.87740431e-01
  7.91492441e-01  7.93854885e-01  8.04520356e-01  8.08770962e-01
  8.14496901e-01  8.19247395e-01  8.26212080e-01  8.33453634e-01
  8.37792865e-01  8.42442738e-01  8.50088379e-01  8.55030441e-01
  8.58742513e-01  8.60632822e-01  8.67641231e-01  8.68802759e-01
  8.83094096e-01  8.87203900e-01  8.94266307e-01  9.00417264e-01
  9.03970163e-01  9.13365383e-01  9.22115495e-01  9.37500144e-01
  9.39484992e-01  9.55954616e-01  9.60642836e-01  9.68610606e-01
  9.77816332e-01  9.85655515e-01  9.97283381e-01  1.00279639e+00
  1.00652121e+00  1.01880414e+00  1.02423385e+00  1.03151698e+00
  1.04213401e+00  1.05012782e+00  1.05754346e+00  1.06907057e+00
  1.08118804e+00  1.08843413e+00  1.09156722e+00  1.11043432e+00
  1.11388486e+00  1.12288638e+00  1.13302916e+00  1.13828594e+00
  1.13879020e+00  1.14832159e+00  1.16736214e+00  1.18922698e+00
  1.19479822e+00  1.19750163e+00  1.21113145e+00  1.22209816e+00
  1.22788308e+00  1.22898405e+00  1.23444036e+00  1.24802364e+00
  1.26231657e+00  1.27643808e+00  1.28905707e+00  1.29411311e+00
  1.30243264e+00  1.30843182e+00  1.31373341e+00  1.31495436e+00
  1.32816089e+00  1.35453116e+00  1.35767289e+00  1.36634608e+00
  1.37188258e+00  1.38126611e+00  1.38246816e+00  1.38659667e+00
  1.39685511e+00  1.41143923e+00  1.41234761e+00  1.42947827e+00
  1.43746893e+00  1.45829351e+00  1.46716608e+00  1.47705546e+00
  1.48241828e+00  1.48969971e+00  1.50058220e+00  1.50907309e+00
  1.51672422e+00  1.52514534e+00  1.54014732e+00  1.55791115e+00
  1.56782619e+00  1.58136055e+00  1.58394558e+00  1.58677038e+00
  1.58757551e+00  1.60515909e+00  1.61683987e+00  1.62040320e+00
  1.62242895e+00  1.63230045e+00  1.64344332e+00  1.64710186e+00
  1.64842863e+00  1.66144278e+00  1.66643975e+00  1.67534983e+00
  1.67897696e+00  1.68476778e+00  1.69881893e+00  1.70672738e+00
  1.71190119e+00  1.72101303e+00  1.74045005e+00  1.74904583e+00
  1.75565847e+00  1.75803926e+00  1.77680476e+00  1.78283580e+00
  1.78927619e+00  1.79206125e+00  1.79481303e+00  1.80367646e+00
  1.83558474e+00  1.85870006e+00  1.86187712e+00  1.87690061e+00
  1.87928695e+00  1.88733845e+00  1.89082911e+00  1.89987851e+00
  1.91735042e+00  1.92746385e+00  1.93099492e+00  1.93395286e+00
  1.94366534e+00  1.95563951e+00  1.95856754e+00  1.96562704e+00
  1.97185493e+00  1.97930960e+00  1.98782712e+00  2.00257279e+00
  2.02016093e+00  2.03150580e+00  2.04915515e+00  2.05232462e+00
  2.06089381e+00  2.07358086e+00  2.08811521e+00  2.10343530e+00
  2.11390346e+00  2.11671384e+00  2.12261380e+00  2.13068612e+00
  2.13672385e+00  2.14332329e+00  2.15148074e+00  2.16709912e+00
  2.17362194e+00  2.17939642e+00  2.18181746e+00  2.19648048e+00
  2.20189093e+00  2.21129368e+00  2.22343283e+00  2.22711572e+00
  2.23350544e+00  2.24802754e+00  2.26508437e+00  2.27421255e+00
  2.27449504e+00  2.29474454e+00  2.30107411e+00  2.31034906e+00
  2.32632308e+00  2.33186108e+00  2.33716603e+00  2.35277705e+00
  2.36682332e+00  2.37095177e+00  2.39123868e+00  2.39496181e+00
  2.40420982e+00  2.41439442e+00  2.42214709e+00  2.43137265e+00
  2.44583966e+00  2.47094096e+00  2.47606478e+00  2.48188806e+00
  2.48462366e+00  2.49537183e+00  2.51022143e+00  2.51524779e+00
  2.52464942e+00  2.52723496e+00  2.53180592e+00  2.53909092e+00
  2.55273272e+00  2.56167568e+00  2.57020556e+00  2.57340182e+00
  2.57450995e+00  2.58194496e+00  2.59433554e+00  2.59915224e+00
  2.60267067e+00  2.61059570e+00  2.61435027e+00  2.62043315e+00
  2.62338391e+00  2.63466767e+00  2.63854621e+00  2.64422696e+00
  2.65044316e+00  2.66138790e+00  2.66544174e+00  2.67879398e+00
  2.68303072e+00  2.69767948e+00  2.70854016e+00  2.71773142e+00
  2.72962486e+00  2.73193637e+00  2.73747605e+00  2.74466935e+00
  2.74881757e+00  2.75105328e+00  2.77221651e+00  2.77813382e+00
  2.78037786e+00  2.79186311e+00  2.79784490e+00  2.80999589e+00
  2.82665989e+00  2.83266151e+00  2.83962148e+00  2.84735300e+00
  2.85197492e+00  2.85748464e+00  2.86018869e+00  2.87186538e+00
  2.88910610e+00  2.90599462e+00  2.90748353e+00  2.92265019e+00
  2.93932245e+00  2.94174652e+00  2.94601564e+00  2.95606844e+00
  2.95687852e+00  2.96648431e+00  2.97296821e+00  2.98288675e+00
  2.99839522e+00  2.99901475e+00  3.00716547e+00  3.01902243e+00
  3.02834760e+00  3.03661952e+00  3.05003794e+00  3.05810272e+00
  3.06196578e+00  3.07346980e+00  3.07744988e+00  3.07949141e+00
  3.08898894e+00  3.09388239e+00  3.10464863e+00  3.10617723e+00
  3.12191290e+00  3.12483729e+00  3.13249235e+00  3.13712229e+00
  3.15517353e+00  3.15590537e+00  3.16203413e+00  3.17222335e+00
  3.17309155e+00  3.18360644e+00  3.18648233e+00  3.19894605e+00
  3.21081223e+00  3.21680745e+00  3.21758589e+00  3.22435580e+00
  3.23601153e+00  3.24018120e+00  3.24673478e+00  3.24846704e+00
  3.25085593e+00  3.26183525e+00  3.27149168e+00  3.27953062e+00
  3.28637299e+00  3.29290883e+00  3.30136706e+00  3.30280337e+00
  3.31274880e+00  3.31347649e+00  3.31789534e+00  3.32428030e+00
  3.33104610e+00  3.34136579e+00  3.34756600e+00  3.35551172e+00
  3.35948348e+00  3.36462214e+00  3.37355017e+00  3.37904360e+00
  3.38108270e+00  3.38946189e+00  3.39529059e+00  3.40302160e+00
  3.41176068e+00  3.41755784e+00  3.42961895e+00  3.43797437e+00
  3.44377389e+00  3.44730165e+00  3.45797143e+00  3.47743153e+00
  3.48057271e+00  3.48594278e+00  3.48945647e+00  3.50791135e+00
  3.51008194e+00  3.51840699e+00  3.52233883e+00  3.53029260e+00
  3.54037690e+00  3.54737780e+00  3.55986774e+00  3.56597441e+00
  3.57339755e+00  3.58298224e+00  3.59040049e+00  3.59822851e+00
  3.60287229e+00  3.61040560e+00  3.62741134e+00  3.63272118e+00
  3.63953146e+00  3.65971619e+00  3.66673135e+00  3.68196113e+00
  3.69382686e+00  3.69971006e+00  3.71186810e+00  3.71541254e+00
  3.71719450e+00  3.73757095e+00  3.74267636e+00  3.75163306e+00
  3.76536280e+00  3.79039972e+00  3.80340414e+00  3.81264094e+00
  3.83355436e+00  3.84004923e+00  3.84434458e+00  3.87699471e+00
  3.88840896e+00  3.89405611e+00  3.90377698e+00  3.90990582e+00
  3.92024775e+00  3.92602802e+00  3.94777999e+00  3.95775104e+00
  3.96315100e+00  3.96664854e+00  3.98667134e+00  3.99762839e+00
  4.00603357e+00  4.01773157e+00  4.02147408e+00  4.03359608e+00
  4.03815974e+00  4.05413927e+00  4.05933019e+00  4.07190019e+00
  4.08268592e+00  4.09599015e+00  4.10136085e+00  4.11019555e+00
  4.11845579e+00  4.14253306e+00  4.15055637e+00  4.15740946e+00
  4.16747640e+00  4.17944874e+00  4.19522926e+00  4.20089666e+00
  4.22095712e+00  4.23135905e+00  4.24383086e+00  4.26628113e+00
  4.27478885e+00  4.28282414e+00  4.29335639e+00  4.30677605e+00
  4.30915831e+00  4.32143669e+00  4.32852171e+00  4.36655701e+00
  4.37738944e+00  4.38748837e+00  4.41139510e+00  4.43264786e+00
  4.43672537e+00  4.45121343e+00  4.46571125e+00  4.48130209e+00
  4.49757737e+00  4.50477917e+00  4.52968786e+00  4.54781518e+00
  4.56073592e+00  4.58380496e+00  4.61376316e+00  4.61780651e+00
  4.63792596e+00  4.64393512e+00  4.65910140e+00  4.67212896e+00
  4.69382184e+00  4.72248464e+00  4.75431663e+00  4.78286911e+00
  4.79312216e+00  4.82417116e+00  4.84133470e+00  4.86892149e+00
  4.90045442e+00  4.91912695e+00  4.94942400e+00  4.95856993e+00
  5.00978498e+00  5.01893946e+00  5.03531228e+00  5.06303042e+00
  5.09445122e+00  5.10005624e+00  5.12655097e+00  5.13474303e+00
  5.20105220e+00  5.20298770e+00  5.22144459e+00  5.23782923e+00
  5.25327516e+00  5.26339566e+00  5.29830392e+00  5.31175209e+00
  5.31379892e+00  5.35195861e+00  5.39663702e+00  5.43267765e+00
  5.45368830e+00  5.46653690e+00  5.49478590e+00  5.51347003e+00
  5.53387186e+00  5.58877401e+00  5.60194234e+00  5.69480196e+00
  5.71537247e+00  5.75924102e+00  5.84294286e+00  5.86887585e+00
  5.88253777e+00  5.96693547e+00  6.01508343e+00  6.10132498e+00
  6.11607730e+00  6.19356436e+00  6.36586439e+00  6.39479395e+00
  6.43518450e+00  6.50534497e+00  6.57763452e+00  6.61885226e+00
  6.80909579e+00  6.83022695e+00  6.84716554e+00  6.85011915e+00
  6.85733952e+00  6.86245783e+00  6.86652498e+00  6.87037623e+00
  6.87458042e+00  6.88399179e+00  6.89836632e+00  6.91378359e+00
  6.96015502e+00  6.97496754e+00  6.97786185e+00  7.02201966e+00
  7.04629690e+00  7.07636227e+00  7.12128050e+00  7.12520844e+00
  7.17815886e+00  7.33607590e+00  7.34837132e+00  7.37375185e+00
  7.41031033e+00  7.47228758e+00  7.52913756e+00  7.55714200e+00
  7.59466193e+00  8.29302986e+00  8.32159718e+00  8.33382864e+00
  8.46227054e+00  8.50580030e+00  8.58592734e+00  8.68479495e+00
  8.76226324e+00  8.80156241e+00  8.90110601e+00  8.95710937e+00
  9.01850876e+00  9.03575389e+00  9.09047095e+00  9.14756940e+00
  2.24280385e+01  2.25244737e+01  2.25312957e+01  2.25428468e+01
  2.26167863e+01  2.26582149e+01  2.26824893e+01  2.27270716e+01
  2.28459797e+01  2.29592553e+01  2.31057895e+01  2.31629676e+01
  2.31928884e+01  2.32680235e+01  2.34459384e+01  2.37534814e+01
  3.30876116e+01  4.40247592e+01  4.45495283e+01  5.72270864e+01
  5.73584837e+01  5.75896273e+01]
nelec by numeric integration = 159.99991047383025
    CPU time for vxc     72.81 sec, wall time      4.17 sec
    CPU time for df vj and vk    139.20 sec, wall time      9.52 sec
E1 = -5245.659834728856  Ecoul = 2403.664185562994  Exc = -146.4404257592179
cycle= 2 E= -1122.1108589412  delta_E= 2.76e-10  |g|= 3.87e-05  |ddm|= 8.22e-05
    CPU time for cycle= 2    217.53 sec, wall time     14.08 sec
  HOMO = -0.21485726009863  LUMO = -0.0763738561509922
  mo_energy =
[-2.48123316e+01 -2.48096078e+01 -2.48095854e+01 -1.92719893e+01
 -1.91890707e+01 -1.44269962e+01 -1.04871502e+01 -1.03578401e+01
 -1.03106052e+01 -1.02943310e+01 -1.02890460e+01 -1.02783279e+01
 -1.02761633e+01 -1.02558316e+01 -1.02550437e+01 -1.02490242e+01
 -1.02471475e+01 -1.02463323e+01 -1.02448191e+01 -1.02445699e+01
 -1.02409805e+01 -1.02387038e+01 -1.35114842e+00 -1.26550655e+00
 -1.26202628e+00 -1.13962267e+00 -1.05575847e+00 -1.00295897e+00
 -9.01790024e-01 -8.69982097e-01 -8.61864893e-01 -8.11409528e-01
 -7.93703317e-01 -7.90344465e-01 -7.58773924e-01 -7.21733184e-01
 -6.99049487e-01 -6.86119020e-01 -6.64811917e-01 -6.63438497e-01
 -6.29609176e-01 -6.20822524e-01 -6.18371233e-01 -5.95562137e-01
 -5.74722976e-01 -5.58092850e-01 -5.42797042e-01 -5.40084860e-01
 -5.15664758e-01 -5.00095578e-01 -4.97380740e-01 -4.93959238e-01
 -4.90839495e-01 -4.88737995e-01 -4.76853620e-01 -4.75944727e-01
 -4.58867496e-01 -4.57333372e-01 -4.55541784e-01 -4.46585858e-01
 -4.43186332e-01 -4.37803382e-01 -4.35325615e-01 -4.34216456e-01
 -4.24380381e-01 -4.23288835e-01 -4.17213374e-01 -3.97770340e-01
 -3.81418205e-01 -3.77369068e-01 -3.72058313e-01 -3.65439566e-01
 -3.62920089e-01 -3.57408957e-01 -3.42744717e-01 -3.39978458e-01
 -2.96689361e-01 -2.92557186e-01 -2.51536707e-01 -2.14857260e-01
 -7.63738562e-02 -1.59074992e-02 -5.76877392e-03  2.58662492e-02
  4.40699230e-02  5.67365254e-02  5.92188237e-02  6.85260245e-02
  7.40350425e-02  8.29554052e-02  8.54241741e-02  8.94959993e-02
  9.81414210e-02  9.99606732e-02  1.08163452e-01  1.14250439e-01
  1.17367791e-01  1.22490748e-01  1.28685561e-01  1.36510888e-01
  1.39855238e-01  1.42997979e-01  1.45094276e-01  1.51493114e-01
  1.55250429e-01  1.58256710e-01  1.71692466e-01  1.82159373e-01
  1.83130903e-01  1.87114322e-01  1.92407188e-01  1.94382710e-01
  1.95632639e-01  2.00224411e-01  2.02470694e-01  2.11803972e-01
  2.14495700e-01  2.21958263e-01  2.28104967e-01  2.29797765e-01
  2.37670685e-01  2.39437512e-01  2.47142870e-01  2.49442386e-01
  2.53060496e-01  2.57843765e-01  2.64438984e-01  2.69459342e-01
  2.83378069e-01  2.85872892e-01  2.93367505e-01  2.98363034e-01
  3.05627336e-01  3.11877468e-01  3.22761281e-01  3.24952990e-01
  3.31257924e-01  3.36335261e-01  3.39479342e-01  3.42965725e-01
  3.48641985e-01  3.50742871e-01  3.59998679e-01  3.62775160e-01
  3.64415864e-01  3.71621333e-01  3.84457841e-01  3.93153261e-01
  3.93259543e-01  3.98683178e-01  4.00113912e-01  4.07738940e-01
  4.17392152e-01  4.20205280e-01  4.24427582e-01  4.26359775e-01
  4.27629888e-01  4.32436256e-01  4.34862752e-01  4.37311494e-01
  4.41052663e-01  4.50082144e-01  4.51655830e-01  4.54045468e-01
  4.57788884e-01  4.60629716e-01  4.65018686e-01  4.72725531e-01
  4.76334267e-01  4.81435880e-01  4.90180207e-01  4.92926888e-01
  4.97925016e-01  5.00346269e-01  5.04773111e-01  5.13150190e-01
  5.17369624e-01  5.24197357e-01  5.28987663e-01  5.43977357e-01
  5.50563212e-01  5.60048661e-01  5.68538447e-01  5.76041359e-01
  5.80295900e-01  5.94821678e-01  6.02855478e-01  6.04591273e-01
  6.11189572e-01  6.22217089e-01  6.27528615e-01  6.35995567e-01
  6.41161722e-01  6.46295143e-01  6.54077740e-01  6.62963510e-01
  6.71364382e-01  6.74325961e-01  6.80103297e-01  6.82595083e-01
  6.92391648e-01  7.00318828e-01  7.11796376e-01  7.14250737e-01
  7.19717656e-01  7.24111528e-01  7.26945445e-01  7.35184002e-01
  7.42138234e-01  7.46602710e-01  7.50384736e-01  7.55320296e-01
  7.64324500e-01  7.68239256e-01  7.74627122e-01  7.87739982e-01
  7.91491544e-01  7.93854901e-01  8.04519862e-01  8.08770175e-01
  8.14496196e-01  8.19246780e-01  8.26211381e-01  8.33453080e-01
  8.37792241e-01  8.42442192e-01  8.50088052e-01  8.55029889e-01
  8.58741911e-01  8.60632171e-01  8.67640699e-01  8.68802269e-01
  8.83093735e-01  8.87203921e-01  8.94265429e-01  9.00417218e-01
  9.03969584e-01  9.13365068e-01  9.22115058e-01  9.37499477e-01
  9.39484678e-01  9.55954018e-01  9.60642301e-01  9.68610090e-01
  9.77815711e-01  9.85655179e-01  9.97283139e-01  1.00279591e+00
  1.00652067e+00  1.01880342e+00  1.02423352e+00  1.03151634e+00
  1.04213356e+00  1.05012723e+00  1.05754305e+00  1.06907008e+00
  1.08118762e+00  1.08843354e+00  1.09156674e+00  1.11043394e+00
  1.11388418e+00  1.12288601e+00  1.13302903e+00  1.13828575e+00
  1.13879002e+00  1.14832119e+00  1.16736156e+00  1.18922656e+00
  1.19479797e+00  1.19750110e+00  1.21113070e+00  1.22209754e+00
  1.22788240e+00  1.22898358e+00  1.23443977e+00  1.24802288e+00
  1.26231598e+00  1.27643735e+00  1.28905614e+00  1.29411264e+00
  1.30243220e+00  1.30843119e+00  1.31373258e+00  1.31495383e+00
  1.32816050e+00  1.35453056e+00  1.35767235e+00  1.36634528e+00
  1.37188191e+00  1.38126536e+00  1.38246743e+00  1.38659611e+00
  1.39685447e+00  1.41143938e+00  1.41234659e+00  1.42947813e+00
  1.43746858e+00  1.45829308e+00  1.46716558e+00  1.47705472e+00
  1.48241764e+00  1.48970033e+00  1.50058151e+00  1.50907241e+00
  1.51672393e+00  1.52514443e+00  1.54014692e+00  1.55791051e+00
  1.56782559e+00  1.58136014e+00  1.58394514e+00  1.58676959e+00
  1.58757498e+00  1.60515847e+00  1.61683899e+00  1.62040295e+00
  1.62242856e+00  1.63230025e+00  1.64344352e+00  1.64710144e+00
  1.64842816e+00  1.66144223e+00  1.66643899e+00  1.67534946e+00
  1.67897643e+00  1.68476708e+00  1.69881881e+00  1.70672653e+00
  1.71190072e+00  1.72101264e+00  1.74044932e+00  1.74904494e+00
  1.75565776e+00  1.75803875e+00  1.77680464e+00  1.78283525e+00
  1.78927593e+00  1.79206132e+00  1.79481263e+00  1.80367541e+00
  1.83558416e+00  1.85870004e+00  1.86187648e+00  1.87690024e+00
  1.87928632e+00  1.88733757e+00  1.89082875e+00  1.89987785e+00
  1.91734983e+00  1.92746368e+00  1.93099460e+00  1.93395204e+00
  1.94366519e+00  1.95563892e+00  1.95856681e+00  1.96562587e+00
  1.97185426e+00  1.97930899e+00  1.98782632e+00  2.00257244e+00
  2.02016051e+00  2.03150526e+00  2.04915381e+00  2.05232397e+00
  2.06089322e+00  2.07357997e+00  2.08811406e+00  2.10343461e+00
  2.11390208e+00  2.11671266e+00  2.12261322e+00  2.13068553e+00
  2.13672295e+00  2.14332222e+00  2.15147999e+00  2.16709895e+00
  2.17362148e+00  2.17939531e+00  2.18181699e+00  2.19647972e+00
  2.20188994e+00  2.21129262e+00  2.22343217e+00  2.22711506e+00
  2.23350454e+00  2.24802692e+00  2.26508354e+00  2.27421167e+00
  2.27449467e+00  2.29474361e+00  2.30107423e+00  2.31034820e+00
  2.32632305e+00  2.33186056e+00  2.33716541e+00  2.35277659e+00
  2.36682260e+00  2.37095116e+00  2.39123825e+00  2.39496162e+00
  2.40420980e+00  2.41439436e+00  2.42214669e+00  2.43137217e+00
  2.44583912e+00  2.47094035e+00  2.47606444e+00  2.48188774e+00
  2.48462304e+00  2.49537148e+00  2.51022129e+00  2.51524764e+00
  2.52464885e+00  2.52723446e+00  2.53180532e+00  2.53909025e+00
  2.55273229e+00  2.56167532e+00  2.57020496e+00  2.57340138e+00
  2.57450929e+00  2.58194442e+00  2.59433499e+00  2.59915164e+00
  2.60267002e+00  2.61059512e+00  2.61434979e+00  2.62043258e+00
  2.62338338e+00  2.63466700e+00  2.63854552e+00  2.64422679e+00
  2.65044263e+00  2.66138717e+00  2.66544154e+00  2.67879361e+00
  2.68302996e+00  2.69767912e+00  2.70853948e+00  2.71773078e+00
  2.72962446e+00  2.73193584e+00  2.73747598e+00  2.74466857e+00
  2.74881708e+00  2.75105280e+00  2.77221592e+00  2.77813388e+00
  2.78037738e+00  2.79186297e+00  2.79784564e+00  2.80999523e+00
  2.82665925e+00  2.83266060e+00  2.83962069e+00  2.84735243e+00
  2.85197469e+00  2.85748381e+00  2.86018794e+00  2.87186426e+00
  2.88910457e+00  2.90599348e+00  2.90748278e+00  2.92264924e+00
  2.93932138e+00  2.94174595e+00  2.94601506e+00  2.95606795e+00
  2.95687801e+00  2.96648307e+00  2.97296728e+00  2.98288568e+00
  2.99839403e+00  2.99901387e+00  3.00716445e+00  3.01902156e+00
  3.02834649e+00  3.03661888e+00  3.05003724e+00  3.05810186e+00
  3.06196519e+00  3.07346979e+00  3.07744957e+00  3.07949063e+00
  3.08898796e+00  3.09388139e+00  3.10464869e+00  3.10617648e+00
  3.12191230e+00  3.12483651e+00  3.13249188e+00  3.13712159e+00
  3.15517307e+00  3.15590505e+00  3.16203309e+00  3.17222258e+00
  3.17309135e+00  3.18360628e+00  3.18648163e+00  3.19894572e+00
  3.21081177e+00  3.21680692e+00  3.21758510e+00  3.22435536e+00
  3.23601073e+00  3.24018066e+00  3.24673397e+00  3.24846625e+00
  3.25085549e+00  3.26183475e+00  3.27149107e+00  3.27953023e+00
  3.28637239e+00  3.29290870e+00  3.30136645e+00  3.30280272e+00
  3.31274815e+00  3.31347585e+00  3.31789488e+00  3.32427986e+00
  3.33104544e+00  3.34136506e+00  3.34756542e+00  3.35551087e+00
  3.35948261e+00  3.36462138e+00  3.37354996e+00  3.37904306e+00
  3.38108226e+00  3.38946084e+00  3.39529018e+00  3.40302108e+00
  3.41175992e+00  3.41755714e+00  3.42961870e+00  3.43797325e+00
  3.44377313e+00  3.44730066e+00  3.45797092e+00  3.47743057e+00
  3.48057203e+00  3.48594205e+00  3.48945600e+00  3.50791033e+00
  3.51008147e+00  3.51840646e+00  3.52233797e+00  3.53029177e+00
  3.54037626e+00  3.54737707e+00  3.55986688e+00  3.56597309e+00
  3.57339652e+00  3.58298137e+00  3.59040008e+00  3.59822743e+00
  3.60287133e+00  3.61040475e+00  3.62741006e+00  3.63272049e+00
  3.63953026e+00  3.65971530e+00  3.66673081e+00  3.68196055e+00
  3.69382742e+00  3.69970941e+00  3.71186702e+00  3.71541154e+00
  3.71719385e+00  3.73756999e+00  3.74267564e+00  3.75163241e+00
  3.76536202e+00  3.79039898e+00  3.80340321e+00  3.81264021e+00
  3.83355345e+00  3.84004833e+00  3.84434386e+00  3.87699410e+00
  3.88840835e+00  3.89405552e+00  3.90377663e+00  3.90990499e+00
  3.92024698e+00  3.92602732e+00  3.94777921e+00  3.95775038e+00
  3.96315021e+00  3.96664809e+00  3.98667069e+00  3.99762769e+00
  4.00603306e+00  4.01773068e+00  4.02147312e+00  4.03359512e+00
  4.03815878e+00  4.05413881e+00  4.05932943e+00  4.07190003e+00
  4.08268548e+00  4.09598948e+00  4.10135988e+00  4.11019486e+00
  4.11845523e+00  4.14253181e+00  4.15055545e+00  4.15740832e+00
  4.16747509e+00  4.17944779e+00  4.19522819e+00  4.20089550e+00
  4.22095562e+00  4.23135780e+00  4.24383011e+00  4.26628049e+00
  4.27478773e+00  4.28282335e+00  4.29335586e+00  4.30677510e+00
  4.30915718e+00  4.32143585e+00  4.32852088e+00  4.36655634e+00
  4.37738878e+00  4.38748740e+00  4.41139419e+00  4.43264730e+00
  4.43672468e+00  4.45121257e+00  4.46571032e+00  4.48130131e+00
  4.49757635e+00  4.50477885e+00  4.52968755e+00  4.54781548e+00
  4.56073473e+00  4.58380415e+00  4.61376209e+00  4.61780571e+00
  4.63792519e+00  4.64393402e+00  4.65910016e+00  4.67212752e+00
  4.69382127e+00  4.72248365e+00  4.75431540e+00  4.78286814e+00
  4.79312090e+00  4.82417076e+00  4.84133422e+00  4.86892093e+00
  4.90045392e+00  4.91912611e+00  4.94942352e+00  4.95856942e+00
  5.00978476e+00  5.01893847e+00  5.03531161e+00  5.06302945e+00
  5.09445004e+00  5.10005541e+00  5.12655030e+00  5.13474182e+00
  5.20105562e+00  5.20298714e+00  5.22144315e+00  5.23782762e+00
  5.25327386e+00  5.26339475e+00  5.29830545e+00  5.31175077e+00
  5.31379860e+00  5.35195711e+00  5.39663549e+00  5.43267655e+00
  5.45368703e+00  5.46653575e+00  5.49478514e+00  5.51347079e+00
  5.53387063e+00  5.58877379e+00  5.60194087e+00  5.69480023e+00
  5.71537168e+00  5.75924128e+00  5.84294294e+00  5.86887476e+00
  5.88253601e+00  5.96693444e+00  6.01508265e+00  6.10132390e+00
  6.11607541e+00  6.19356737e+00  6.36586459e+00  6.39479843e+00
  6.43518743e+00  6.50534412e+00  6.57763883e+00  6.61884923e+00
  6.80909497e+00  6.83023068e+00  6.84716545e+00  6.85011802e+00
  6.85733839e+00  6.86245665e+00  6.86652423e+00  6.87037532e+00
  6.87458013e+00  6.88399068e+00  6.89836376e+00  6.91378105e+00
  6.96015588e+00  6.97496694e+00  6.97786112e+00  7.02201857e+00
  7.04629612e+00  7.07636140e+00  7.12128413e+00  7.12520807e+00
  7.17816129e+00  7.33607473e+00  7.34837017e+00  7.37374991e+00
  7.41030957e+00  7.47228661e+00  7.52913481e+00  7.55714098e+00
  7.59466117e+00  8.29302847e+00  8.32159618e+00  8.33382803e+00
  8.46226987e+00  8.50579907e+00  8.58592631e+00  8.68479394e+00
  8.76226224e+00  8.80156147e+00  8.90110499e+00  8.95710840e+00
  9.01850733e+00  9.03575334e+00  9.09047009e+00  9.14756837e+00
  2.24280380e+01  2.25244735e+01  2.25312955e+01  2.25428465e+01
  2.26167859e+01  2.26582147e+01  2.26824882e+01  2.27270725e+01
  2.28459790e+01  2.29592542e+01  2.31057876e+01  2.31629646e+01
  2.31928854e+01  2.32680226e+01  2.34459389e+01  2.37534784e+01
  3.30876110e+01  4.40247660e+01  4.45495229e+01  5.72270844e+01
  5.73584832e+01  5.75896255e+01]
nelec by numeric integration = 159.99991047364273
    CPU time for vxc     73.79 sec, wall time      4.45 sec
    CPU time for df vj and vk    139.51 sec, wall time      9.24 sec
E1 = -5245.660043459823  Ecoul = 2403.664396946647  Exc = -146.4404284122631
cycle= 3 E= -1122.11085894156  delta_E= -3.59e-10  |g|= 3.35e-06  |ddm|= 5.94e-05
    CPU time for cycle= 3    219.45 sec, wall time     14.32 sec
  HOMO = -0.214857266784001  LUMO = -0.0763738224555963
  mo_energy =
[-2.48123320e+01 -2.48096081e+01 -2.48095856e+01 -1.92719891e+01
 -1.91890716e+01 -1.44269963e+01 -1.04871500e+01 -1.03578399e+01
 -1.03106050e+01 -1.02943311e+01 -1.02890461e+01 -1.02783279e+01
 -1.02761634e+01 -1.02558314e+01 -1.02550434e+01 -1.02490242e+01
 -1.02471473e+01 -1.02463325e+01 -1.02448191e+01 -1.02445699e+01
 -1.02409805e+01 -1.02387039e+01 -1.35114848e+00 -1.26550665e+00
 -1.26202635e+00 -1.13962259e+00 -1.05575866e+00 -1.00295904e+00
 -9.01789954e-01 -8.69982065e-01 -8.61864923e-01 -8.11409562e-01
 -7.93703284e-01 -7.90344453e-01 -7.58773889e-01 -7.21733176e-01
 -6.99049474e-01 -6.86119016e-01 -6.64811923e-01 -6.63438505e-01
 -6.29609138e-01 -6.20822572e-01 -6.18371281e-01 -5.95562148e-01
 -5.74722984e-01 -5.58092833e-01 -5.42797000e-01 -5.40084843e-01
 -5.15664738e-01 -5.00095621e-01 -4.97380793e-01 -4.93959273e-01
 -4.90839520e-01 -4.88737978e-01 -4.76853653e-01 -4.75944823e-01
 -4.58867571e-01 -4.57333430e-01 -4.55541845e-01 -4.46585957e-01
 -4.43186329e-01 -4.37803477e-01 -4.35325619e-01 -4.34216489e-01
 -4.24380410e-01 -4.23288832e-01 -4.17213383e-01 -3.97770364e-01
 -3.81418250e-01 -3.77369066e-01 -3.72058306e-01 -3.65439558e-01
 -3.62920055e-01 -3.57408978e-01 -3.42744751e-01 -3.39978479e-01
 -2.96689594e-01 -2.92557182e-01 -2.51536696e-01 -2.14857267e-01
 -7.63738225e-02 -1.59074660e-02 -5.76877200e-03  2.58662445e-02
  4.40699160e-02  5.67365177e-02  5.92188208e-02  6.85260360e-02
  7.40350532e-02  8.29553949e-02  8.54241824e-02  8.94960154e-02
  9.81414314e-02  9.99606815e-02  1.08163454e-01  1.14250441e-01
  1.17367786e-01  1.22490770e-01  1.28685560e-01  1.36510874e-01
  1.39855235e-01  1.42997975e-01  1.45094276e-01  1.51493116e-01
  1.55250441e-01  1.58256716e-01  1.71692468e-01  1.82159387e-01
  1.83130901e-01  1.87114314e-01  1.92407184e-01  1.94382720e-01
  1.95632674e-01  2.00224407e-01  2.02470727e-01  2.11803987e-01
  2.14495706e-01  2.21958274e-01  2.28104965e-01  2.29797771e-01
  2.37670697e-01  2.39437521e-01  2.47142881e-01  2.49442425e-01
  2.53060493e-01  2.57843781e-01  2.64438998e-01  2.69459359e-01
  2.83378074e-01  2.85872911e-01  2.93367517e-01  2.98363041e-01
  3.05627344e-01  3.11877467e-01  3.22761295e-01  3.24952995e-01
  3.31257913e-01  3.36335268e-01  3.39479357e-01  3.42965740e-01
  3.48641988e-01  3.50742875e-01  3.59998683e-01  3.62775171e-01
  3.64415865e-01  3.71621329e-01  3.84457847e-01  3.93153269e-01
  3.93259545e-01  3.98683174e-01  4.00113896e-01  4.07738940e-01
  4.17392158e-01  4.20205272e-01  4.24427596e-01  4.26359764e-01
  4.27629878e-01  4.32436249e-01  4.34862763e-01  4.37311480e-01
  4.41052654e-01  4.50082140e-01  4.51655819e-01  4.54045458e-01
  4.57788881e-01  4.60629715e-01  4.65018697e-01  4.72725528e-01
  4.76334266e-01  4.81435869e-01  4.90180219e-01  4.92926883e-01
  4.97925012e-01  5.00346256e-01  5.04773110e-01  5.13150178e-01
  5.17369615e-01  5.24197371e-01  5.28987667e-01  5.43977382e-01
  5.50563208e-01  5.60048653e-01  5.68538470e-01  5.76041362e-01
  5.80295898e-01  5.94821684e-01  6.02855497e-01  6.04591278e-01
  6.11189525e-01  6.22217097e-01  6.27528610e-01  6.35995572e-01
  6.41161725e-01  6.46295134e-01  6.54077734e-01  6.62963527e-01
  6.71364396e-01  6.74325980e-01  6.80103316e-01  6.82595089e-01
  6.92391659e-01  7.00318835e-01  7.11796399e-01  7.14250755e-01
  7.19717659e-01  7.24111534e-01  7.26945447e-01  7.35184030e-01
  7.42138242e-01  7.46602707e-01  7.50384743e-01  7.55320287e-01
  7.64324499e-01  7.68239264e-01  7.74627137e-01  7.87739975e-01
  7.91491559e-01  7.93854882e-01  8.04519871e-01  8.08770203e-01
  8.14496198e-01  8.19246778e-01  8.26211385e-01  8.33453093e-01
  8.37792251e-01  8.42442197e-01  8.50088053e-01  8.55029885e-01
  8.58741918e-01  8.60632176e-01  8.67640706e-01  8.68802262e-01
  8.83093716e-01  8.87203908e-01  8.94265440e-01  9.00417192e-01
  9.03969576e-01  9.13365064e-01  9.22115053e-01  9.37499475e-01
  9.39484684e-01  9.55954025e-01  9.60642301e-01  9.68610096e-01
  9.77815707e-01  9.85655176e-01  9.97283145e-01  1.00279592e+00
  1.00652069e+00  1.01880343e+00  1.02423352e+00  1.03151634e+00
  1.04213357e+00  1.05012724e+00  1.05754305e+00  1.06907008e+00
  1.08118762e+00  1.08843353e+00  1.09156673e+00  1.11043393e+00
  1.11388417e+00  1.12288602e+00  1.13302905e+00  1.13828576e+00
  1.13879003e+00  1.14832121e+00  1.16736157e+00  1.18922656e+00
  1.19479798e+00  1.19750111e+00  1.21113072e+00  1.22209755e+00
  1.22788239e+00  1.22898358e+00  1.23443977e+00  1.24802289e+00
  1.26231598e+00  1.27643735e+00  1.28905614e+00  1.29411264e+00
  1.30243219e+00  1.30843121e+00  1.31373258e+00  1.31495384e+00
  1.32816052e+00  1.35453057e+00  1.35767236e+00  1.36634529e+00
  1.37188195e+00  1.38126539e+00  1.38246747e+00  1.38659615e+00
  1.39685448e+00  1.41143942e+00  1.41234659e+00  1.42947813e+00
  1.43746858e+00  1.45829309e+00  1.46716558e+00  1.47705475e+00
  1.48241765e+00  1.48970034e+00  1.50058151e+00  1.50907242e+00
  1.51672395e+00  1.52514444e+00  1.54014692e+00  1.55791050e+00
  1.56782559e+00  1.58136014e+00  1.58394513e+00  1.58676959e+00
  1.58757498e+00  1.60515848e+00  1.61683900e+00  1.62040294e+00
  1.62242858e+00  1.63230026e+00  1.64344353e+00  1.64710142e+00
  1.64842816e+00  1.66144222e+00  1.66643898e+00  1.67534946e+00
  1.67897644e+00  1.68476707e+00  1.69881885e+00  1.70672655e+00
  1.71190072e+00  1.72101262e+00  1.74044930e+00  1.74904495e+00
  1.75565775e+00  1.75803875e+00  1.77680465e+00  1.78283525e+00
  1.78927591e+00  1.79206133e+00  1.79481264e+00  1.80367541e+00
  1.83558415e+00  1.85870009e+00  1.86187647e+00  1.87690023e+00
  1.87928632e+00  1.88733759e+00  1.89082873e+00  1.89987783e+00
  1.91734983e+00  1.92746368e+00  1.93099459e+00  1.93395204e+00
  1.94366517e+00  1.95563891e+00  1.95856681e+00  1.96562587e+00
  1.97185425e+00  1.97930899e+00  1.98782630e+00  2.00257244e+00
  2.02016050e+00  2.03150530e+00  2.04915382e+00  2.05232397e+00
  2.06089321e+00  2.07357999e+00  2.08811402e+00  2.10343457e+00
  2.11390209e+00  2.11671265e+00  2.12261322e+00  2.13068553e+00
  2.13672294e+00  2.14332222e+00  2.15148002e+00  2.16709894e+00
  2.17362148e+00  2.17939534e+00  2.18181699e+00  2.19647971e+00
  2.20188992e+00  2.21129263e+00  2.22343216e+00  2.22711508e+00
  2.23350455e+00  2.24802690e+00  2.26508353e+00  2.27421165e+00
  2.27449466e+00  2.29474363e+00  2.30107422e+00  2.31034820e+00
  2.32632304e+00  2.33186054e+00  2.33716542e+00  2.35277660e+00
  2.36682260e+00  2.37095114e+00  2.39123823e+00  2.39496158e+00
  2.40420977e+00  2.41439435e+00  2.42214667e+00  2.43137215e+00
  2.44583910e+00  2.47094034e+00  2.47606443e+00  2.48188775e+00
  2.48462303e+00  2.49537152e+00  2.51022130e+00  2.51524764e+00
  2.52464885e+00  2.52723445e+00  2.53180532e+00  2.53909023e+00
  2.55273229e+00  2.56167534e+00  2.57020496e+00  2.57340141e+00
  2.57450929e+00  2.58194440e+00  2.59433499e+00  2.59915166e+00
  2.60267003e+00  2.61059511e+00  2.61434978e+00  2.62043259e+00
  2.62338337e+00  2.63466700e+00  2.63854551e+00  2.64422681e+00
  2.65044260e+00  2.66138717e+00  2.66544156e+00  2.67879362e+00
  2.68302998e+00  2.69767913e+00  2.70853949e+00  2.71773078e+00
  2.72962444e+00  2.73193583e+00  2.73747597e+00  2.74466858e+00
  2.74881707e+00  2.75105279e+00  2.77221592e+00  2.77813385e+00
  2.78037738e+00  2.79186301e+00  2.79784566e+00  2.80999525e+00
  2.82665925e+00  2.83266063e+00  2.83962071e+00  2.84735243e+00
  2.85197472e+00  2.85748383e+00  2.86018797e+00  2.87186430e+00
  2.88910461e+00  2.90599348e+00  2.90748279e+00  2.92264925e+00
  2.93932141e+00  2.94174598e+00  2.94601506e+00  2.95606800e+00
  2.95687803e+00  2.96648309e+00  2.97296727e+00  2.98288569e+00
  2.99839408e+00  2.99901389e+00  3.00716445e+00  3.01902157e+00
  3.02834649e+00  3.03661887e+00  3.05003724e+00  3.05810186e+00
  3.06196521e+00  3.07346974e+00  3.07744960e+00  3.07949064e+00
  3.08898797e+00  3.09388141e+00  3.10464865e+00  3.10617646e+00
  3.12191232e+00  3.12483652e+00  3.13249191e+00  3.13712158e+00
  3.15517304e+00  3.15590505e+00  3.16203308e+00  3.17222256e+00
  3.17309136e+00  3.18360630e+00  3.18648162e+00  3.19894572e+00
  3.21081175e+00  3.21680694e+00  3.21758508e+00  3.22435538e+00
  3.23601072e+00  3.24018066e+00  3.24673398e+00  3.24846623e+00
  3.25085548e+00  3.26183477e+00  3.27149107e+00  3.27953027e+00
  3.28637238e+00  3.29290871e+00  3.30136646e+00  3.30280272e+00
  3.31274814e+00  3.31347584e+00  3.31789487e+00  3.32427984e+00
  3.33104544e+00  3.34136505e+00  3.34756542e+00  3.35551088e+00
  3.35948261e+00  3.36462139e+00  3.37354996e+00  3.37904309e+00
  3.38108227e+00  3.38946087e+00  3.39529020e+00  3.40302109e+00
  3.41175993e+00  3.41755713e+00  3.42961872e+00  3.43797328e+00
  3.44377314e+00  3.44730066e+00  3.45797093e+00  3.47743055e+00
  3.48057202e+00  3.48594206e+00  3.48945602e+00  3.50791032e+00
  3.51008149e+00  3.51840645e+00  3.52233795e+00  3.53029176e+00
  3.54037626e+00  3.54737706e+00  3.55986690e+00  3.56597308e+00
  3.57339652e+00  3.58298137e+00  3.59040008e+00  3.59822745e+00
  3.60287135e+00  3.61040478e+00  3.62741007e+00  3.63272048e+00
  3.63953026e+00  3.65971528e+00  3.66673082e+00  3.68196055e+00
  3.69382742e+00  3.69970942e+00  3.71186703e+00  3.71541153e+00
  3.71719384e+00  3.73757000e+00  3.74267563e+00  3.75163242e+00
  3.76536204e+00  3.79039897e+00  3.80340320e+00  3.81264021e+00
  3.83355344e+00  3.84004832e+00  3.84434388e+00  3.87699410e+00
  3.88840836e+00  3.89405553e+00  3.90377665e+00  3.90990497e+00
  3.92024696e+00  3.92602728e+00  3.94777920e+00  3.95775037e+00
  3.96315019e+00  3.96664808e+00  3.98667067e+00  3.99762767e+00
  4.00603303e+00  4.01773068e+00  4.02147310e+00  4.03359512e+00
  4.03815878e+00  4.05413884e+00  4.05932943e+00  4.07190003e+00
  4.08268551e+00  4.09598947e+00  4.10135987e+00  4.11019485e+00
  4.11845524e+00  4.14253182e+00  4.15055546e+00  4.15740832e+00
  4.16747508e+00  4.17944779e+00  4.19522818e+00  4.20089550e+00
  4.22095562e+00  4.23135781e+00  4.24383011e+00  4.26628048e+00
  4.27478774e+00  4.28282337e+00  4.29335587e+00  4.30677508e+00
  4.30915720e+00  4.32143585e+00  4.32852088e+00  4.36655633e+00
  4.37738881e+00  4.38748740e+00  4.41139421e+00  4.43264728e+00
  4.43672467e+00  4.45121257e+00  4.46571033e+00  4.48130131e+00
  4.49757636e+00  4.50477883e+00  4.52968756e+00  4.54781548e+00
  4.56073475e+00  4.58380415e+00  4.61376210e+00  4.61780572e+00
  4.63792516e+00  4.64393404e+00  4.65910016e+00  4.67212755e+00
  4.69382133e+00  4.72248371e+00  4.75431541e+00  4.78286814e+00
  4.79312093e+00  4.82417080e+00  4.84133420e+00  4.86892092e+00
  4.90045391e+00  4.91912610e+00  4.94942350e+00  4.95856940e+00
  5.00978479e+00  5.01893846e+00  5.03531162e+00  5.06302948e+00
  5.09445002e+00  5.10005538e+00  5.12655027e+00  5.13474182e+00
  5.20105532e+00  5.20298708e+00  5.22144316e+00  5.23782763e+00
  5.25327388e+00  5.26339472e+00  5.29830528e+00  5.31175075e+00
  5.31379853e+00  5.35195713e+00  5.39663550e+00  5.43267653e+00
  5.45368703e+00  5.46653575e+00  5.49478512e+00  5.51347068e+00
  5.53387061e+00  5.58877375e+00  5.60194088e+00  5.69480025e+00
  5.71537164e+00  5.75924120e+00  5.84294293e+00  5.86887472e+00
  5.88253607e+00  5.96693439e+00  6.01508259e+00  6.10132386e+00
  6.11607547e+00  6.19356714e+00  6.36586453e+00  6.39479798e+00
  6.43518723e+00  6.50534413e+00  6.57763840e+00  6.61884936e+00
  6.80909489e+00  6.83023031e+00  6.84716534e+00  6.85011794e+00
  6.85733832e+00  6.86245658e+00  6.86652415e+00  6.87037525e+00
  6.87458003e+00  6.88399062e+00  6.89836385e+00  6.91378114e+00
  6.96015575e+00  6.97496685e+00  6.97786104e+00  7.02201850e+00
  7.04629604e+00  7.07636132e+00  7.12128378e+00  7.12520797e+00
  7.17816108e+00  7.33607467e+00  7.34837011e+00  7.37374996e+00
  7.41030952e+00  7.47228654e+00  7.52913493e+00  7.55714091e+00
  7.59466110e+00  8.29302835e+00  8.32159605e+00  8.33382788e+00
  8.46226973e+00  8.50579895e+00  8.58592618e+00  8.68479382e+00
  8.76226212e+00  8.80156134e+00  8.90110487e+00  8.95710827e+00
  9.01850723e+00  9.03575320e+00  9.09046996e+00  9.14756825e+00
  2.24280381e+01  2.25244735e+01  2.25312955e+01  2.25428465e+01
  2.26167859e+01  2.26582146e+01  2.26824881e+01  2.27270727e+01
  2.28459792e+01  2.29592543e+01  2.31057876e+01  2.31629647e+01
  2.31928853e+01  2.32680226e+01  2.34459390e+01  2.37534784e+01
  3.30876109e+01  4.40247652e+01  4.45495231e+01  5.72270841e+01
  5.73584829e+01  5.75896253e+01]
nelec by numeric integration = 159.99991047362965
    CPU time for vxc     72.03 sec, wall time      4.22 sec
    CPU time for df vj and vk    140.30 sec, wall time      9.36 sec
E1 = -5245.660046113463  Ecoul = 2403.664400983506  Exc = -146.44042979548894
cycle= 4 E= -1122.11085894156  delta_E= -6.82e-12  |g|= 4.02e-07  |ddm|= 6.22e-06
    CPU time for cycle= 4    217.34 sec, wall time     13.95 sec
  HOMO = -0.214857250213244  LUMO = -0.0763738723154204
  mo_energy =
[-2.48123322e+01 -2.48096082e+01 -2.48095857e+01 -1.92719892e+01
 -1.91890715e+01 -1.44269962e+01 -1.04871500e+01 -1.03578402e+01
 -1.03106050e+01 -1.02943310e+01 -1.02890462e+01 -1.02783279e+01
 -1.02761634e+01 -1.02558315e+01 -1.02550435e+01 -1.02490241e+01
 -1.02471473e+01 -1.02463324e+01 -1.02448191e+01 -1.02445699e+01
 -1.02409805e+01 -1.02387039e+01 -1.35114854e+00 -1.26550673e+00
 -1.26202641e+00 -1.13962268e+00 -1.05575872e+00 -1.00295897e+00
 -9.01789976e-01 -8.69982099e-01 -8.61864898e-01 -8.11409541e-01
 -7.93703281e-01 -7.90344442e-01 -7.58773963e-01 -7.21733170e-01
 -6.99049487e-01 -6.86119020e-01 -6.64811938e-01 -6.63438512e-01
 -6.29609141e-01 -6.20822639e-01 -6.18371338e-01 -5.95562146e-01
 -5.74722995e-01 -5.58092859e-01 -5.42797019e-01 -5.40084860e-01
 -5.15664730e-01 -5.00095651e-01 -4.97380858e-01 -4.93959275e-01
 -4.90839539e-01 -4.88738025e-01 -4.76853632e-01 -4.75944827e-01
 -4.58867633e-01 -4.57333453e-01 -4.55541870e-01 -4.46585980e-01
 -4.43186330e-01 -4.37803551e-01 -4.35325627e-01 -4.34216474e-01
 -4.24380453e-01 -4.23288847e-01 -4.17213372e-01 -3.97770360e-01
 -3.81418256e-01 -3.77369079e-01 -3.72058315e-01 -3.65439546e-01
 -3.62920089e-01 -3.57408972e-01 -3.42744733e-01 -3.39978465e-01
 -2.96689629e-01 -2.92557190e-01 -2.51536690e-01 -2.14857250e-01
 -7.63738723e-02 -1.59074561e-02 -5.76877681e-03  2.58662561e-02
  4.40699270e-02  5.67365234e-02  5.92188307e-02  6.85260392e-02
  7.40350372e-02  8.29554076e-02  8.54241784e-02  8.94960007e-02
  9.81414138e-02  9.99606851e-02  1.08163458e-01  1.14250443e-01
  1.17367791e-01  1.22490733e-01  1.28685562e-01  1.36510887e-01
  1.39855246e-01  1.42997968e-01  1.45094277e-01  1.51493107e-01
  1.55250441e-01  1.58256708e-01  1.71692470e-01  1.82159364e-01
  1.83130912e-01  1.87114312e-01  1.92407186e-01  1.94382716e-01
  1.95632654e-01  2.00224404e-01  2.02470703e-01  2.11803979e-01
  2.14495709e-01  2.21958270e-01  2.28104964e-01  2.29797776e-01
  2.37670678e-01  2.39437512e-01  2.47142884e-01  2.49442398e-01
  2.53060501e-01  2.57843756e-01  2.64439002e-01  2.69459343e-01
  2.83378075e-01  2.85872900e-01  2.93367520e-01  2.98363032e-01
  3.05627341e-01  3.11877473e-01  3.22761286e-01  3.24952981e-01
  3.31257913e-01  3.36335270e-01  3.39479350e-01  3.42965729e-01
  3.48641969e-01  3.50742860e-01  3.59998687e-01  3.62775170e-01
  3.64415868e-01  3.71621330e-01  3.84457849e-01  3.93153256e-01
  3.93259539e-01  3.98683184e-01  4.00113913e-01  4.07738950e-01
  4.17392160e-01  4.20205286e-01  4.24427590e-01  4.26359772e-01
  4.27629884e-01  4.32436257e-01  4.34862755e-01  4.37311490e-01
  4.41052655e-01  4.50082141e-01  4.51655827e-01  4.54045467e-01
  4.57788884e-01  4.60629713e-01  4.65018691e-01  4.72725534e-01
  4.76334259e-01  4.81435882e-01  4.90180219e-01  4.92926888e-01
  4.97925008e-01  5.00346267e-01  5.04773087e-01  5.13150186e-01
  5.17369618e-01  5.24197337e-01  5.28987663e-01  5.43977360e-01
  5.50563217e-01  5.60048642e-01  5.68538446e-01  5.76041362e-01
  5.80295887e-01  5.94821692e-01  6.02855487e-01  6.04591271e-01
  6.11189509e-01  6.22217086e-01  6.27528608e-01  6.35995570e-01
  6.41161720e-01  6.46295133e-01  6.54077740e-01  6.62963529e-01
  6.71364392e-01  6.74325972e-01  6.80103300e-01  6.82595089e-01
  6.92391653e-01  7.00318832e-01  7.11796374e-01  7.14250765e-01
  7.19717641e-01  7.24111520e-01  7.26945440e-01  7.35184011e-01
  7.42138239e-01  7.46602712e-01  7.50384735e-01  7.55320286e-01
  7.64324478e-01  7.68239252e-01  7.74627130e-01  7.87739979e-01
  7.91491554e-01  7.93854873e-01  8.04519858e-01  8.08770194e-01
  8.14496196e-01  8.19246774e-01  8.26211385e-01  8.33453072e-01
  8.37792251e-01  8.42442199e-01  8.50088046e-01  8.55029890e-01
  8.58741916e-01  8.60632176e-01  8.67640688e-01  8.68802259e-01
  8.83093721e-01  8.87203895e-01  8.94265441e-01  9.00417190e-01
  9.03969588e-01  9.13365049e-01  9.22115048e-01  9.37499473e-01
  9.39484665e-01  9.55954011e-01  9.60642288e-01  9.68610098e-01
  9.77815710e-01  9.85655160e-01  9.97283134e-01  1.00279591e+00
  1.00652067e+00  1.01880343e+00  1.02423351e+00  1.03151634e+00
  1.04213356e+00  1.05012723e+00  1.05754305e+00  1.06907008e+00
  1.08118763e+00  1.08843353e+00  1.09156673e+00  1.11043393e+00
  1.11388418e+00  1.12288601e+00  1.13302902e+00  1.13828575e+00
  1.13879001e+00  1.14832118e+00  1.16736157e+00  1.18922656e+00
  1.19479798e+00  1.19750110e+00  1.21113072e+00  1.22209755e+00
  1.22788240e+00  1.22898359e+00  1.23443977e+00  1.24802289e+00
  1.26231598e+00  1.27643735e+00  1.28905614e+00  1.29411264e+00
  1.30243221e+00  1.30843120e+00  1.31373259e+00  1.31495384e+00
  1.32816051e+00  1.35453057e+00  1.35767235e+00  1.36634529e+00
  1.37188194e+00  1.38126538e+00  1.38246744e+00  1.38659612e+00
  1.39685447e+00  1.41143939e+00  1.41234660e+00  1.42947811e+00
  1.43746857e+00  1.45829307e+00  1.46716558e+00  1.47705474e+00
  1.48241766e+00  1.48970030e+00  1.50058151e+00  1.50907241e+00
  1.51672394e+00  1.52514444e+00  1.54014693e+00  1.55791052e+00
  1.56782559e+00  1.58136015e+00  1.58394513e+00  1.58676960e+00
  1.58757498e+00  1.60515848e+00  1.61683901e+00  1.62040295e+00
  1.62242854e+00  1.63230023e+00  1.64344350e+00  1.64710144e+00
  1.64842816e+00  1.66144223e+00  1.66643899e+00  1.67534946e+00
  1.67897644e+00  1.68476709e+00  1.69881882e+00  1.70672655e+00
  1.71190072e+00  1.72101262e+00  1.74044931e+00  1.74904496e+00
  1.75565776e+00  1.75803876e+00  1.77680464e+00  1.78283526e+00
  1.78927590e+00  1.79206130e+00  1.79481263e+00  1.80367543e+00
  1.83558416e+00  1.85870006e+00  1.86187648e+00  1.87690019e+00
  1.87928632e+00  1.88733757e+00  1.89082869e+00  1.89987784e+00
  1.91734984e+00  1.92746365e+00  1.93099459e+00  1.93395203e+00
  1.94366515e+00  1.95563889e+00  1.95856679e+00  1.96562586e+00
  1.97185425e+00  1.97930897e+00  1.98782631e+00  2.00257242e+00
  2.02016050e+00  2.03150526e+00  2.04915384e+00  2.05232398e+00
  2.06089320e+00  2.07357998e+00  2.08811405e+00  2.10343453e+00
  2.11390208e+00  2.11671264e+00  2.12261322e+00  2.13068553e+00
  2.13672295e+00  2.14332222e+00  2.15148000e+00  2.16709893e+00
  2.17362147e+00  2.17939533e+00  2.18181697e+00  2.19647972e+00
  2.20188993e+00  2.21129261e+00  2.22343216e+00  2.22711507e+00
  2.23350455e+00  2.24802690e+00  2.26508353e+00  2.27421166e+00
  2.27449464e+00  2.29474362e+00  2.30107419e+00  2.31034821e+00
  2.32632302e+00  2.33186055e+00  2.33716538e+00  2.35277656e+00
  2.36682258e+00  2.37095115e+00  2.39123823e+00  2.39496159e+00
  2.40420975e+00  2.41439434e+00  2.42214668e+00  2.43137215e+00
  2.44583911e+00  2.47094035e+00  2.47606442e+00  2.48188774e+00
  2.48462303e+00  2.49537150e+00  2.51022129e+00  2.51524760e+00
  2.52464884e+00  2.52723445e+00  2.53180531e+00  2.53909025e+00
  2.55273229e+00  2.56167533e+00  2.57020495e+00  2.57340139e+00
  2.57450929e+00  2.58194441e+00  2.59433499e+00  2.59915165e+00
  2.60267003e+00  2.61059511e+00  2.61434978e+00  2.62043258e+00
  2.62338339e+00  2.63466701e+00  2.63854551e+00  2.64422676e+00
  2.65044261e+00  2.66138718e+00  2.66544155e+00  2.67879362e+00
  2.68302997e+00  2.69767913e+00  2.70853948e+00  2.71773080e+00
  2.72962443e+00  2.73193584e+00  2.73747596e+00  2.74466857e+00
  2.74881708e+00  2.75105279e+00  2.77221592e+00  2.77813383e+00
  2.78037738e+00  2.79186297e+00  2.79784561e+00  2.80999524e+00
  2.82665925e+00  2.83266060e+00  2.83962070e+00  2.84735243e+00
  2.85197470e+00  2.85748381e+00  2.86018795e+00  2.87186428e+00
  2.88910459e+00  2.90599348e+00  2.90748279e+00  2.92264925e+00
  2.93932140e+00  2.94174596e+00  2.94601507e+00  2.95606796e+00
  2.95687801e+00  2.96648309e+00  2.97296729e+00  2.98288569e+00
  2.99839404e+00  2.99901388e+00  3.00716446e+00  3.01902157e+00
  3.02834649e+00  3.03661887e+00  3.05003725e+00  3.05810187e+00
  3.06196520e+00  3.07346972e+00  3.07744956e+00  3.07949062e+00
  3.08898797e+00  3.09388140e+00  3.10464863e+00  3.10617647e+00
  3.12191228e+00  3.12483653e+00  3.13249188e+00  3.13712156e+00
  3.15517301e+00  3.15590502e+00  3.16203308e+00  3.17222256e+00
  3.17309133e+00  3.18360627e+00  3.18648162e+00  3.19894572e+00
  3.21081176e+00  3.21680692e+00  3.21758507e+00  3.22435535e+00
  3.23601072e+00  3.24018066e+00  3.24673397e+00  3.24846622e+00
  3.25085546e+00  3.26183475e+00  3.27149106e+00  3.27953025e+00
  3.28637237e+00  3.29290869e+00  3.30136645e+00  3.30280272e+00
  3.31274814e+00  3.31347584e+00  3.31789487e+00  3.32427984e+00
  3.33104543e+00  3.34136506e+00  3.34756541e+00  3.35551088e+00
  3.35948262e+00  3.36462138e+00  3.37354995e+00  3.37904306e+00
  3.38108225e+00  3.38946086e+00  3.39529016e+00  3.40302107e+00
  3.41175991e+00  3.41755714e+00  3.42961869e+00  3.43797326e+00
  3.44377314e+00  3.44730067e+00  3.45797092e+00  3.47743056e+00
  3.48057202e+00  3.48594206e+00  3.48945600e+00  3.50791034e+00
  3.51008148e+00  3.51840647e+00  3.52233797e+00  3.53029177e+00
  3.54037625e+00  3.54737706e+00  3.55986688e+00  3.56597309e+00
  3.57339653e+00  3.58298138e+00  3.59040008e+00  3.59822744e+00
  3.60287134e+00  3.61040477e+00  3.62741007e+00  3.63272048e+00
  3.63953026e+00  3.65971530e+00  3.66673081e+00  3.68196055e+00
  3.69382736e+00  3.69970940e+00  3.71186701e+00  3.71541155e+00
  3.71719385e+00  3.73756999e+00  3.74267562e+00  3.75163240e+00
  3.76536200e+00  3.79039897e+00  3.80340322e+00  3.81264021e+00
  3.83355345e+00  3.84004833e+00  3.84434385e+00  3.87699407e+00
  3.88840836e+00  3.89405550e+00  3.90377661e+00  3.90990494e+00
  3.92024697e+00  3.92602722e+00  3.94777921e+00  3.95775037e+00
  3.96315021e+00  3.96664802e+00  3.98667066e+00  3.99762768e+00
  4.00603303e+00  4.01773068e+00  4.02147310e+00  4.03359512e+00
  4.03815879e+00  4.05413881e+00  4.05932943e+00  4.07190001e+00
  4.08268548e+00  4.09598948e+00  4.10135988e+00  4.11019484e+00
  4.11845520e+00  4.14253182e+00  4.15055544e+00  4.15740831e+00
  4.16747509e+00  4.17944779e+00  4.19522817e+00  4.20089551e+00
  4.22095564e+00  4.23135783e+00  4.24383011e+00  4.26628048e+00
  4.27478775e+00  4.28282336e+00  4.29335585e+00  4.30677509e+00
  4.30915719e+00  4.32143585e+00  4.32852088e+00  4.36655635e+00
  4.37738879e+00  4.38748740e+00  4.41139420e+00  4.43264729e+00
  4.43672468e+00  4.45121258e+00  4.46571033e+00  4.48130131e+00
  4.49757636e+00  4.50477882e+00  4.52968753e+00  4.54781544e+00
  4.56073473e+00  4.58380415e+00  4.61376211e+00  4.61780573e+00
  4.63792517e+00  4.64393404e+00  4.65910017e+00  4.67212755e+00
  4.69382127e+00  4.72248367e+00  4.75431541e+00  4.78286814e+00
  4.79312091e+00  4.82417078e+00  4.84133421e+00  4.86892094e+00
  4.90045392e+00  4.91912610e+00  4.94942351e+00  4.95856943e+00
  5.00978475e+00  5.01893841e+00  5.03531160e+00  5.06302948e+00
  5.09445006e+00  5.10005541e+00  5.12655026e+00  5.13474183e+00
  5.20105530e+00  5.20298710e+00  5.22144316e+00  5.23782763e+00
  5.25327385e+00  5.26339475e+00  5.29830528e+00  5.31175069e+00
  5.31379858e+00  5.35195713e+00  5.39663550e+00  5.43267655e+00
  5.45368703e+00  5.46653573e+00  5.49478514e+00  5.51347063e+00
  5.53387063e+00  5.58877373e+00  5.60194086e+00  5.69480025e+00
  5.71537166e+00  5.75924120e+00  5.84294285e+00  5.86887477e+00
  5.88253600e+00  5.96693445e+00  6.01508266e+00  6.10132389e+00
  6.11607543e+00  6.19356709e+00  6.36586448e+00  6.39479798e+00
  6.43518717e+00  6.50534407e+00  6.57763839e+00  6.61884926e+00
  6.80909482e+00  6.83023030e+00  6.84716525e+00  6.85011789e+00
  6.85733826e+00  6.86245652e+00  6.86652408e+00  6.87037518e+00
  6.87457995e+00  6.88399056e+00  6.89836376e+00  6.91378105e+00
  6.96015569e+00  6.97496678e+00  6.97786098e+00  7.02201844e+00
  7.04629597e+00  7.07636126e+00  7.12128376e+00  7.12520791e+00
  7.17816104e+00  7.33607461e+00  7.34837005e+00  7.37374988e+00
  7.41030944e+00  7.47228646e+00  7.52913484e+00  7.55714085e+00
  7.59466102e+00  8.29302827e+00  8.32159595e+00  8.33382778e+00
  8.46226962e+00  8.50579887e+00  8.58592609e+00  8.68479373e+00
  8.76226203e+00  8.80156125e+00  8.90110478e+00  8.95710818e+00
  9.01850715e+00  9.03575309e+00  9.09046986e+00  9.14756816e+00
  2.24280381e+01  2.25244735e+01  2.25312955e+01  2.25428465e+01
  2.26167859e+01  2.26582147e+01  2.26824881e+01  2.27270726e+01
  2.28459792e+01  2.29592543e+01  2.31057877e+01  2.31629647e+01
  2.31928853e+01  2.32680226e+01  2.34459389e+01  2.37534784e+01
  3.30876111e+01  4.40247652e+01  4.45495229e+01  5.72270840e+01
  5.73584827e+01  5.75896251e+01]
nelec by numeric integration = 159.99991047363858
    CPU time for vxc     75.91 sec, wall time      4.44 sec
    CPU time for df vj and vk    140.93 sec, wall time      9.37 sec
E1 = -5245.660047824867  Ecoul = 2403.664402959592  Exc = -146.4404300601663
Extra cycle  E= -1122.11085894156  delta_E= 4.09e-12  |g|= 7.29e-07  |ddm|= 1.36e-06
    CPU time for scf_cycle   1462.04 sec, wall time    101.44 sec
    CPU time for SCF   1462.04 sec, wall time    101.44 sec
converged SCF energy = -1122.11085894156
SCF Done after 101.47 seconds
after SCF memory used: 5.12 GB
Converting <class 'pyscf.df.df_jk.density_fit.<locals>.DFHF'> to RHF
Converting <class 'pyscf.df.df_jk.density_fit.<locals>.DFHF'> to RHF
hdiag shape (54880,)
n_occ =  80
n_vir =  686
max_vir =  196
A_size =  54880
A_reduced_size = 15680
a_x = 0.25
beta = 0.6575
alpha = 1.54
Q-Gamma tensors building time = 0.26
after Q matrix memory used: 5.24 GB
TDDFT
|-------- In-house Developed TDDFT Starts ---------|
Residual conv = 1e-05

Number of excited states = 20
Initial guess:   sTDDFT
Preconditioner:  sTDDFT
A matrix size =  54880
setting initial guess
sTDDFT Convergence tol = 1.00e-03
sTDDFT diagonalization Converged
after  4 iterations; 6.1356 seconds
final subspace 105
max_norm =  7.54e-04
MVcost     1.7458s 28.45%
GScost     3.6939s 60.20%
subgencost 0.3714s 6.05%
subcost    0.0462s 0.75%
sTDDFT excitation energy:
[3.09302904 3.65559108 4.30540849 4.37085871 4.63387447 5.02060694
 5.33952428 5.6503013  5.68705649 5.85658889 5.96072227 6.15641659
 6.18790821 6.22825749 6.33339312 6.37281984 6.4640997  6.47729034
 6.53829872 6.60162538 6.62559823 6.70976453 6.71644257 6.77375811
 6.84561816 6.88233789 6.92070202 6.95266711]
new_m = 28
initial guess done

iteration 0
beginning of step 0 memory used: 6.39 GB
    CPU time for df vj and vk   3943.31 sec, wall time    235.90 sec
subspace size: 28
Maximum residual norm:  1.05e-01
unconverged states [0, 1, 2, 3, 4, 5, 6, 7, 8, 9, 10, 11, 12, 13, 14, 15, 16, 17, 18, 19]
sTDDFT_preconditioner conv 0.01
sTDDFT preconditioning Done
after 8 steps; 9.6491 s
final subspace 107
max_norm =  9.65e-03
initial_cost 0.2777s  2.88%
MVcost     2.9535s  30.61%
GScost     4.8178s  49.93%
subgencost 1.1037s  11.44%
subcost    0.1231s  1.28%
m & new_m 28 48

iteration 1
beginning of step 1 memory used: 6.48 GB
    CPU time for df vj and vk   2805.86 sec, wall time    168.37 sec
subspace size: 48
Maximum residual norm:  2.76e-02
unconverged states [0, 1, 2, 3, 4, 5, 6, 7, 8, 9, 10, 11, 12, 13, 14, 15, 16, 17, 18, 19]
sTDDFT_preconditioner conv 0.01
sTDDFT preconditioning Done
after 12 steps; 10.0381 s
final subspace 121
max_norm =  6.47e-03
initial_cost 0.2664s  2.65%
MVcost     2.0750s  20.67%
GScost     5.2921s  52.72%
subgencost 1.7416s  17.35%
subcost    0.2014s  2.01%
m & new_m 48 68

iteration 2
beginning of step 2 memory used: 6.50 GB
    CPU time for df vj and vk   2807.39 sec, wall time    169.09 sec
subspace size: 68
Maximum residual norm:  8.66e-03
unconverged states [0, 1, 2, 3, 4, 5, 6, 7, 8, 9, 10, 11, 12, 13, 14, 15, 16, 17, 18, 19]
sTDDFT_preconditioner conv 0.01
sTDDFT preconditioning Done
after 12 steps; 9.0755 s
final subspace 114
max_norm =  6.52e-03
initial_cost 0.2819s  3.11%
MVcost     1.9321s  21.29%
GScost     4.5874s  50.55%
subgencost 1.6523s  18.21%
subcost    0.1875s  2.07%
m & new_m 68 88

iteration 3
beginning of step 3 memory used: 6.46 GB
    CPU time for df vj and vk   2809.67 sec, wall time    168.86 sec
subspace size: 88
Maximum residual norm:  2.24e-03
unconverged states [0, 1, 2, 3, 4, 5, 6, 7, 8, 9, 10, 11, 12, 13, 14, 15, 16, 17, 18, 19]
sTDDFT_preconditioner conv 0.01
sTDDFT preconditioning Done
after 11 steps; 8.3578 s
final subspace 111
max_norm =  8.12e-03
initial_cost 0.2550s  3.05%
MVcost     1.8357s  21.96%
GScost     4.3074s  51.54%
subgencost 1.3877s  16.60%
subcost    0.1693s  2.03%
m & new_m 88 108

iteration 4
beginning of step 4 memory used: 6.51 GB
    CPU time for df vj and vk   2801.47 sec, wall time    168.94 sec
subspace size: 108
Maximum residual norm:  5.57e-04
unconverged states [0, 1, 2, 3, 4, 5, 6, 7, 8, 9, 10, 11, 12, 13, 14, 15, 16, 17, 18, 19]
sTDDFT_preconditioner conv 0.01
sTDDFT preconditioning Done
after 12 steps; 8.7760 s
final subspace 112
max_norm =  5.79e-03
initial_cost 0.2698s  3.07%
MVcost     1.8312s  20.87%
GScost     4.4836s  51.09%
subgencost 1.5729s  17.92%
subcost    0.1855s  2.11%
m & new_m 108 128

iteration 5
beginning of step 5 memory used: 6.43 GB
    CPU time for df vj and vk   2810.85 sec, wall time    169.71 sec
subspace size: 128
Maximum residual norm:  9.69e-05
unconverged states [0, 1, 2, 3, 4, 5, 6, 7, 8, 9, 10, 11, 12, 13, 14, 15, 16, 17, 18, 19]
sTDDFT_preconditioner conv 0.01
sTDDFT preconditioning Done
after 11 steps; 9.0949 s
final subspace 113
max_norm =  6.88e-03
initial_cost 0.2652s  2.92%
MVcost     1.9570s  21.52%
GScost     4.7200s  51.90%
subgencost 1.4133s  15.54%
subcost    0.3140s  3.45%
m & new_m 128 148

iteration 6
beginning of step 6 memory used: 6.50 GB
    CPU time for df vj and vk   2784.02 sec, wall time    168.02 sec
subspace size: 148
Maximum residual norm:  1.57e-05
unconverged states [0, 5, 7, 8, 17, 18]
sTDDFT_preconditioner conv 0.01
sTDDFT preconditioning Done
after 15 steps; 4.1124 s
final subspace 55
max_norm =  6.63e-03
initial_cost 0.0673s  1.64%
MVcost     1.1282s  27.43%
GScost     1.4917s  36.27%
subgencost 1.1036s  26.84%
subcost    0.0434s  1.06%
m & new_m 148 154

iteration 7
beginning of step 7 memory used: 6.45 GB
    CPU time for df vj and vk    830.87 sec, wall time     50.82 sec
subspace size: 154
Maximum residual norm:  7.10e-06
TDDFT precedure Done

============= TDDFT Calculation Done ==============
after 8 iterations 1918.28 s
Final subspace  154
preconditioning cost 59.4376 0.03 %
max_norm =  7.10e-06
Total TDDFT memory used: 6.42 GB
Excited State energies (eV) =
 [3.29634917 3.85103096 4.46775177 4.47379068 4.88358835 5.22809128
 5.63101879 5.82407874 5.90448384 6.0971163  6.19256556 6.44112094
 6.47317594 6.48023474 6.51600423 6.64006197 6.66537685 6.77689297
 6.81350516 6.87213466]

Number of excited states = 20
Initial guess:   Adiag
Preconditioner:  Adiag
A matrix size =  54880
new_m = 28
initial guess done

iteration 0
beginning of step 0 memory used: 6.42 GB
    CPU time for df vj and vk   3968.13 sec, wall time    238.87 sec
subspace size: 28
Maximum residual norm:  1.60e-01
unconverged states [0, 1, 2, 3, 4, 5, 6, 7, 8, 9, 10, 11, 12, 13, 14, 15, 16, 17, 18, 19]
m & new_m 28 48

iteration 1
beginning of step 1 memory used: 6.45 GB
    CPU time for df vj and vk   2786.62 sec, wall time    167.78 sec
subspace size: 48
Maximum residual norm:  5.29e-02
unconverged states [0, 1, 2, 3, 4, 5, 6, 7, 8, 9, 10, 11, 12, 13, 14, 15, 16, 17, 18, 19]
m & new_m 48 68

iteration 2
beginning of step 2 memory used: 6.51 GB
    CPU time for df vj and vk   2829.76 sec, wall time    170.92 sec
subspace size: 68
Maximum residual norm:  2.04e-02
unconverged states [0, 1, 2, 3, 4, 5, 6, 7, 8, 9, 10, 11, 12, 13, 14, 15, 16, 17, 18, 19]
m & new_m 68 88

iteration 3
beginning of step 3 memory used: 6.51 GB
    CPU time for df vj and vk   2814.64 sec, wall time    169.60 sec
subspace size: 88
Maximum residual norm:  8.09e-03
unconverged states [0, 1, 2, 3, 4, 5, 6, 7, 8, 9, 10, 11, 12, 13, 14, 15, 16, 17, 18, 19]
m & new_m 88 108

iteration 4
beginning of step 4 memory used: 6.51 GB
    CPU time for df vj and vk   2807.25 sec, wall time    169.36 sec
subspace size: 108
Maximum residual norm:  3.16e-03
unconverged states [0, 1, 2, 3, 4, 5, 6, 7, 8, 9, 10, 11, 12, 13, 14, 15, 16, 17, 18, 19]
m & new_m 108 128

iteration 5
beginning of step 5 memory used: 6.51 GB
    CPU time for df vj and vk   2816.74 sec, wall time    169.64 sec
subspace size: 128
Maximum residual norm:  8.98e-04
unconverged states [0, 1, 2, 3, 4, 5, 6, 7, 8, 9, 10, 11, 12, 13, 14, 15, 16, 17, 18, 19]
m & new_m 128 148

iteration 6
beginning of step 6 memory used: 6.52 GB
    CPU time for df vj and vk   2792.66 sec, wall time    167.86 sec
subspace size: 148
Maximum residual norm:  2.49e-04
unconverged states [0, 4, 5, 6, 7, 8, 9, 10, 11, 12, 13, 14, 15, 16, 17, 18, 19]
m & new_m 148 165

iteration 7
beginning of step 7 memory used: 6.52 GB
    CPU time for df vj and vk   2403.40 sec, wall time    144.89 sec
subspace size: 165
Maximum residual norm:  6.30e-05
unconverged states [15, 16, 17, 18, 19]
m & new_m 165 170

iteration 8
beginning of step 8 memory used: 6.45 GB
    CPU time for df vj and vk    688.78 sec, wall time     42.26 sec
subspace size: 170
Maximum residual norm:  1.50e-05
unconverged states [17, 18, 19]
m & new_m 170 173

iteration 9
beginning of step 9 memory used: 6.47 GB
    CPU time for df vj and vk    414.94 sec, wall time     26.24 sec
subspace size: 173
Maximum residual norm:  7.76e-06
TDDFT precedure Done

============= TDDFT Calculation Done ==============
after 10 iterations 2093.17 s
Final subspace  173
preconditioning cost 0.3467 0.00 %
max_norm =  7.76e-06
Total TDDFT memory used: 6.41 GB
Excited State energies (eV) =
 [3.29634917 3.85103096 4.46775177 4.47379068 4.88358835 5.22809128
 5.63101879 5.82407874 5.90448384 6.0971163  6.19256556 6.44112094
 6.47317594 6.48023474 6.51600423 6.64006197 6.66537685 6.77689297
 6.81350516 6.87213466]
xyzfile = 36_Coumarin_153.xyz
checkfile = True
method = RKS
functional = pbe0
basis_set = def2-tzvp
density_fit = True
grid_level = 3
nstates = 20
pytd = False
TDA = False
TDDFT = True
dynpol = False
dynpol_omega = []
stapol = False
sTDA = False
sTDDFT = False
Truncate_test = False
truncate_virtual = 40.0
ip_options = [0, 1]
conv_tolerance = 1e-05
initial_TOL = 0.001
precond_TOL = 0.01
extrainitial = 8
max = 30
eigensolver_tol = 1e-05
memory = 50000
verbose = 5
beta = []
alpha = []
|-------- In-house Developed TDDFT Ends ----------|
