curpath /scratch/pbsjobs/job.16252241.hpc
lib.num_threads() =  20
at beginning memory used: 0.05 GB
mol.max_memory 160000


System: uname_result(system='Linux', node='compt299', release='3.10.0-1127.el7.x86_64', version='#1 SMP Tue Feb 18 16:39:12 EST 2020', machine='x86_64', processor='x86_64')  Threads 20
Python 3.7.0 (default, Aug 23 2018, 14:24:33) 
[GCC 6.3.0]
numpy 1.18.1  scipy 1.4.1
Date: Mon Sep  6 17:09:34 2021
PySCF version 1.7.4
PySCF path  /home/zzz6/.local/lib/python3.7/site-packages/pyscf

[CONFIG] conf_file None
[INPUT] verbose = 5
[INPUT] max_memory = 160000 
[INPUT] num. atoms = 83
[INPUT] num. electrons = 314
[INPUT] charge = 0
[INPUT] spin (= nelec alpha-beta = 2S) = 0
[INPUT] symmetry False subgroup None
[INPUT] Mole.unit = angstrom
[INPUT]  1 O     -4.902982297871  -2.855278903159  -1.086968075212 AA   -9.265293736566  -5.395695136220  -2.054071968297 Bohr
[INPUT]  2 O     -3.688663386284  -1.477121544840  -2.418415966091 AA   -6.970563565787  -2.791355172442  -4.570143831187 Bohr
[INPUT]  3 O     -1.394176334558   4.761588697686   1.704485719201 AA   -2.634611441664   8.998098556450   3.221011192522 Bohr
[INPUT]  4 O     -8.178807348645   0.263641637218  -0.215428946742 AA  -15.455705914520   0.498210489374  -0.407101708646 Bohr
[INPUT]  5 O     -7.079585965842  -1.285438625874  -1.412974604011 AA  -13.378478550756  -2.429126952838  -2.670135022547 Bohr
[INPUT]  6 O      3.888205431183  -1.459766783793   2.943114831397 AA    7.347643380983  -2.758559427107   5.561680984485 Bohr
[INPUT]  7 N     -1.927747504618  -0.917666646182  -0.396980720132 AA   -3.642914821042  -1.734138634932  -0.750184837782 Bohr
[INPUT]  8 N      0.293232189221   1.316192072677  -0.916548089970 AA    0.554128528535   2.487242544684  -1.732024870036 Bohr
[INPUT]  9 N      3.298055179808  -0.302921998661  -1.876403768234 AA    6.232421033541  -0.572439614575  -3.545889221063 Bohr
[INPUT] 10 N      4.084716837660  -2.953633626964   1.159431702686 AA    7.718996119577  -5.581558627267   2.191008378215 Bohr
[INPUT] 11 C     -3.637515483235  -0.451871354593   1.215919215302 AA   -6.873908037180  -0.853913103717   2.297754306516 Bohr
[INPUT] 12 C     -3.381953778562  -1.981464812013   1.140446778871 AA   -6.390966407421  -3.744425820168   2.155132071710 Bohr
[INPUT] 13 C     -2.766420098079  -2.119454707542  -0.272293356155 AA   -5.227776330861  -4.005188930674  -0.514559868671 Bohr
[INPUT] 14 C     -2.410500312210   0.080194483233   0.498300044770 AA   -4.555185413256   0.151545610011   0.941650612473 Bohr
[INPUT] 15 C     -4.899425631273   0.035553986968   0.441486510476 AA   -9.258572610781   0.067187298006   0.834288592490 Bohr
[INPUT] 16 C     -1.827549944049   1.300954659768   0.627898307335 AA   -3.453568873217   2.458448007438   1.186555834940 Bohr
[INPUT] 17 C     -2.419208660630  -2.451388525113   2.238458604103 AA   -4.571641806766  -4.632452937365   4.230073702930 Bohr
[INPUT] 18 C     -0.649931124786   1.790519358733  -0.048238633441 AA   -1.228191825676   3.383591208736  -0.091157805826 Bohr
[INPUT] 19 C     -2.292648487686   2.466118054298   1.497135651530 AA   -4.332477741625   4.660287713468   2.829176352714 Bohr
[INPUT] 20 C     -0.331243813584   3.121124005606   0.250945437449 AA   -0.625960088130   5.898069571401   0.474218148989 Bohr
[INPUT] 21 C     -6.228430267156  -0.683555323746   0.789920655216 AA  -11.770027390877  -1.291732352867   1.492733698494 Bohr
[INPUT] 22 C     -3.820639700954  -2.123031974928  -1.392452232982 AA   -7.219962655444  -4.011948986308  -2.631353361875 Bohr
[INPUT] 23 C     -1.309502418463   3.648407541276   1.200334557011 AA   -2.474600930351   6.894491043809   2.268303570602 Bohr
[INPUT] 24 C      0.865694011106   3.472427679177  -0.460975099612 AA    1.635924588666   6.561937301004  -0.871116688510 Bohr
[INPUT] 25 C      1.233248279023   2.327805446548  -1.170681190211 AA    2.330501490944   4.398914765246  -2.212266828678 Bohr
[INPUT] 26 C      2.412431399030   2.057998063630  -2.066955948286 AA    4.558834638467   3.889052705147  -3.905980653801 Bohr
[INPUT] 27 C      3.369864412638   1.029728586476  -1.519880226805 AA    6.368120816803   1.945905011075  -2.872157370804 Bohr
[INPUT] 28 C      1.561673518386   4.801328571107  -0.425946903229 AA    2.951135245736   9.073196033442  -0.804922990710 Bohr
[INPUT] 29 C     -7.182527400278  -0.627189478083  -0.382657927909 AA  -13.573009668709  -1.185216341785  -0.723118683141 Bohr
[INPUT] 30 C      4.403303080261   1.156909629162  -0.593595216588 AA    8.321036865147   2.186242349989  -1.121732388203 Bohr
[INPUT] 31 C      4.271526643254  -1.037607080481  -1.220428512266 AA    8.072015489532  -1.960793207019  -2.306275642793 Bohr
[INPUT] 32 C      4.983942789066  -0.147762226696  -0.412060317861 AA    9.418286891835  -0.279230140011  -0.778681147559 Bohr
[INPUT] 33 C      4.263884523999  -2.529354376014  -1.289041857654 AA    8.057573977130  -4.779787042636  -2.435936074067 Bohr
[INPUT] 34 C      3.431546615863  -3.171705813469  -0.117670625560 AA    6.484683287659  -5.993655335148  -0.222365255214 Bohr
[INPUT] 35 C      4.855430358009   2.436802807264   0.060682231908 AA    9.175433593537   4.604889925300   0.114672798934 Bohr
[INPUT] 36 C      2.103109926067  -2.457726470358   0.082678694391 AA    3.974301770121  -4.644429918071   0.156240088736 Bohr
[INPUT] 37 C      6.133753808450  -0.472680704112   0.500211346707 AA   11.591114813478  -0.893237075137   0.945262449675 Bohr
[INPUT] 38 C      2.157433487014  -1.712023382578   1.227387690157 AA    4.076958422422  -3.235255311924   2.319426583060 Bohr
[INPUT] 39 C      5.941010267091   3.183558088237  -0.738213886245 AA   11.226882308030   6.016052888412  -1.395022066353 Bohr
[INPUT] 40 C      3.459114805336  -1.976339167643   1.916286659205 AA    6.536779615514  -3.734739756096   3.621256962055 Bohr
[INPUT] 41 C      1.001016529814  -2.498728901799  -0.859019331872 AA    1.891647087511  -4.721913283936  -1.623311272946 Bohr
[INPUT] 42 C      1.190196489593  -0.732041299911   1.797807004821 AA    2.249145399750  -1.383357568701   3.397362863935 Bohr
[INPUT] 43 C      0.940519842815  -3.213706286863  -2.008850316649 AA    1.777324917639  -6.073024726964  -3.796176923712 Bohr
[INPUT] 44 H     -3.690562312223  -0.107400889367   2.262799604233 AA   -6.974152015743  -0.202958266439   4.276071526774 Bohr
[INPUT] 45 H     -4.309434991280  -2.569827911259   1.195947181325 AA   -8.143651885136  -4.856270939542   2.260012632149 Bohr
[INPUT] 46 H     -2.158196821500  -3.040623509558  -0.361666538954 AA   -4.078400915543  -5.745945680978  -0.683450707042 Bohr
[INPUT] 47 H     -1.878153034178  -0.607120166256  -1.375630517566 AA   -3.549194854618  -1.147290838925  -2.599564926794 Bohr
[INPUT] 48 H     -5.014305056207   1.118325568711   0.618136545998 AA   -9.475663261254   2.113329042962   1.168108779520 Bohr
[INPUT] 49 H     -4.707347144056  -0.065775424093  -0.639245964977 AA   -8.895596875520  -0.124297537263  -1.207999800041 Bohr
[INPUT] 50 H     -1.478778213517  -1.875932551427   2.218637177201 AA   -2.794485822521  -3.544998750354   4.192616634688 Bohr
[INPUT] 51 H     -2.171214598191  -3.519424776633   2.112795385362 AA   -4.103000948239  -6.650748943845   3.992604635580 Bohr
[INPUT] 52 H     -2.877366757617  -2.320935823719   3.233912305331 AA   -5.437435131824  -4.385933059520   6.111208567936 Bohr
[INPUT] 53 H     -2.249828769155   2.231876620312   2.577324856684 AA   -4.251560200870   4.217635556210   4.870438113167 Bohr
[INPUT] 54 H     -3.326150070280   2.791706230226   1.279141888325 AA   -6.285512682031   5.275560195369   2.417227843393 Bohr
[INPUT] 55 H     -6.037892807527  -1.752664898744   0.974234167276 AA  -11.409963775707  -3.312056646764   1.841035757345 Bohr
[INPUT] 56 H     -6.699554195995  -0.245337843227   1.683136693866 AA  -12.660322587110  -0.463621331690   3.180667381613 Bohr
[INPUT] 57 H      0.395956750464   0.347838424334  -1.211393834136 AA    0.748249815550   0.657319357591  -2.289202575504 Bohr
[INPUT] 58 H      2.060051899665   1.734635308753  -3.067243220909 AA    3.892933892757   3.277985659543  -5.796249644946 Bohr
[INPUT] 59 H      2.943731877629   3.009806312539  -2.223974614419 AA    5.562847032871   5.687709618687  -4.202702929237 Bohr
[INPUT] 60 H      1.938930307266   5.020218725404   0.589283724215 AA    3.664047255352   9.486838476427   1.113584848429 Bohr
[INPUT] 61 H      2.415371504628   4.838935139578  -1.122944829466 AA    4.564390632825   9.144262148337  -2.122058180687 Bohr
[INPUT] 62 H      0.864496310212   5.616638790161  -0.686975632522 AA    1.633661261999  10.613909054012  -1.298195799716 Bohr
[INPUT] 63 H      2.625110483613  -0.706360927459  -2.523612542915 AA    4.960739860754  -1.334828697992  -4.768936550626 Bohr
[INPUT] 64 H     -5.683868379980  -2.500152084464  -1.596333115491 AA  -10.740954566237  -4.724602709397  -3.016632391852 Bohr
[INPUT] 65 H      5.289936623073  -2.935435542287  -1.236367808936 AA    9.996531433914  -5.547169231237  -2.336396548118 Bohr
[INPUT] 66 H      3.838896433940  -2.867910151077  -2.251297696973 AA    7.254462880716  -5.419564735395  -4.254336072144 Bohr
[INPUT] 67 H      3.299446562746  -4.251981515339  -0.320705002534 AA    6.235050366228  -8.035080550704  -0.606044621567 Bohr
[INPUT] 68 H      5.237123757319   2.210868021225   1.073000621650 AA    9.896729581787   4.177935057674   2.027677306407 Bohr
[INPUT] 69 H      3.985949175379   3.102605599854   0.208013038627 AA    7.532352287902   5.863074856265   0.393087673344 Bohr
[INPUT] 70 H      6.943808782748   0.272058331705   0.403568527159 AA   13.121896860742   0.514115736829   0.762633988825 Bohr
[INPUT] 71 H      6.568263185596  -1.459628751089   0.263964560533 AA   12.412218534840  -2.758298583099   0.498820725999 Bohr
[INPUT] 72 H      5.818917310107  -0.487394815866   1.561209095976 AA   10.996160057593  -0.921042716520   2.950257614575 Bohr
[INPUT] 73 H      5.066872626686  -3.169690502701   1.314180716775 AA    9.575001572492  -5.989846949740   2.483441632889 Bohr
[INPUT] 74 H     -8.714524288742   0.240506810893  -1.038375458002 AA  -16.468064211593   0.454492003680  -1.962245230094 Bohr
[INPUT] 75 H      6.834469541979   2.550117258739  -0.879136404113 AA   12.915275641021   4.819023204544  -1.661327029908 Bohr
[INPUT] 76 H      6.253514018908   4.109187946848  -0.222068023485 AA   11.817428811865   7.765239813906  -0.419647745410 Bohr
[INPUT] 77 H      5.571561311505   3.458296544858  -1.742524380342 AA   10.528724964967   6.535233327311  -3.292893844224 Bohr
[INPUT] 78 H      0.129260211218  -1.887965781744  -0.580046793530 AA    0.244266398005  -3.567738260046  -1.096129579204 Bohr
[INPUT] 79 H      1.019817126584  -0.942611864276   2.868135994037 AA    1.927175066384  -1.781278265248   5.419991516737 Bohr
[INPUT] 80 H      0.227223772571  -0.726967535691   1.265986673450 AA    0.429390699150  -1.373769543907   2.392368090170 Bohr
[INPUT] 81 H      1.622401494289   0.284274694284   1.744750768946 AA    3.065894488291   0.537201316341   3.297101108932 Bohr
[INPUT] 82 H      0.050072474565  -3.177440294193  -2.646594914243 AA    0.094623263308  -6.004491933183  -5.001339550587 Bohr
[INPUT] 83 H      1.752443431435  -3.872406121505  -2.338872122073 AA    3.311638134205  -7.317787012733  -4.419827751098 Bohr
[INPUT] ---------------- BASIS SET ---------------- 
[INPUT] l, kappa, [nprim/nctr], expnt,             c_1 c_2 ...
[INPUT] C
[INPUT] 0    0    [6    /1   ]  13575.349682      0.00022245814352
                                2035.233368       0.0017232738252
                                463.22562359      0.0089255715314
                                131.20019598      0.035727984502
                                42.853015891      0.11076259931
                                15.584185766      0.24295627626
[INPUT] 0    0    [2    /1   ]  6.2067138508      0.41440263448
                                2.5764896527      0.23744968655
[INPUT] 0    0    [1    /1   ]  0.57696339419        1
[INPUT] 0    0    [1    /1   ]  0.22972831358        1
[INPUT] 0    0    [1    /1   ]  0.095164440028       1
[INPUT] 1    0    [4    /1   ]  34.697232244      0.0053333657805
                                7.9582622826      0.035864109092
                                2.3780826883      0.14215873329
                                0.81433208183     0.34270471845
[INPUT] 1    0    [1    /1   ]  0.28887547253        1
[INPUT] 1    0    [1    /1   ]  0.10056823671        1
[INPUT] 2    0    [1    /1   ]  1.097                1
[INPUT] 2    0    [1    /1   ]  0.318                1
[INPUT] 3    0    [1    /1   ]  0.761                1
[INPUT] N
[INPUT] 0    0    [6    /1   ]  19730.800647      0.00021887984991
                                2957.8958745      0.0016960708803
                                673.22133595      0.0087954603538
                                190.68249494      0.035359382605
                                62.295441898      0.11095789217
                                22.654161182      0.24982972552
[INPUT] 0    0    [2    /1   ]  8.9791477428      0.40623896148
                                3.686300237       0.24338217176
[INPUT] 0    0    [1    /1   ]  0.84660076805        1
[INPUT] 0    0    [1    /1   ]  0.33647133771        1
[INPUT] 0    0    [1    /1   ]  0.13647653675        1
[INPUT] 1    0    [4    /1   ]  49.20038051       0.0055552416751
                                11.346790537      0.038052379723
                                3.4273972411      0.14953671029
                                1.1785525134      0.3494930523
[INPUT] 1    0    [1    /1   ]  0.41642204972        1
[INPUT] 1    0    [1    /1   ]  0.14260826011        1
[INPUT] 2    0    [1    /1   ]  1.654                1
[INPUT] 2    0    [1    /1   ]  0.469                1
[INPUT] 3    0    [1    /1   ]  1.093                1
[INPUT] O
[INPUT] 0    0    [6    /1   ]  27032.382631      0.00021726302465
                                4052.3871392      0.0016838662199
                                922.3272271       0.0087395616265
                                261.24070989      0.035239968808
                                85.354641351      0.11153519115
                                31.035035245      0.25588953961
[INPUT] 0    0    [2    /1   ]  12.260860728      0.39768730901
                                4.9987076005      0.2462784943
[INPUT] 0    0    [1    /1   ]  1.1703108158         1
[INPUT] 0    0    [1    /1   ]  0.46474740994        1
[INPUT] 0    0    [1    /1   ]  0.18504536357        1
[INPUT] 1    0    [4    /1   ]  63.274954801      0.0060685103418
                                14.627049379      0.041912575824
                                4.4501223456      0.16153841088
                                1.5275799647      0.35706951311
[INPUT] 1    0    [1    /1   ]  0.52935117943        1
[INPUT] 1    0    [1    /1   ]  0.1747842127         1
[INPUT] 2    0    [1    /1   ]  2.314                1
[INPUT] 2    0    [1    /1   ]  0.645                1
[INPUT] 3    0    [1    /1   ]  1.428                1
[INPUT] H
[INPUT] 0    0    [3    /1   ]  34.061341         0.0060251978
                                5.1235746         0.045021094
                                1.1646626         0.20189726
[INPUT] 0    0    [1    /1   ]  0.32723041           1
[INPUT] 0    0    [1    /1   ]  0.10307241           1
[INPUT] 1    0    [1    /1   ]  0.8                  1

nuclear repulsion = 5462.08638299416
number of shells = 633
number of NR pGTOs = 2298
number of NR cGTOs = 1573
basis = def2-tzvp
ecp = {}
CPU time:         4.41
RKS
Density fitting turned on
Molecule built
Calculating SCF Energy...


******** <class 'pyscf.df.df_jk.density_fit.<locals>.DFHF'> ********
method = DFHF-RKS-RHF
initial guess = chkfile
damping factor = 0
level_shift factor = 0
DIIS = <class 'pyscf.scf.diis.CDIIS'>
diis_start_cycle = 1
diis_space = 8
SCF conv_tol = 1e-10
SCF conv_tol_grad = None
SCF max_cycles = 50
direct_scf = True
direct_scf_tol = 1e-13
chkfile to save SCF result = 83_Dinoflagellate_luciferin_wb97x.chk
max_memory 160000 MB (current use 55 MB)
XC functionals = wb97x
small_rho_cutoff = 1e-07
radial grids: 
    Treutler-Ahlrichs [JCP 102, 346 (1995); DOI:10.1063/1.469408] (M4) radial grids
    
becke partition: Becke, JCP 88, 2547 (1988); DOI:10.1063/1.454033
pruning grids: <function nwchem_prune at 0x7f181d595e18>
grids dens level: 3
symmetrized grids: False
atomic radii adjust function: <function treutler_atomic_radii_adjust at 0x7f181d595d90>
Set gradient conv threshold to 1e-05
atom O rad-grids = 75, ang-grids = [ 50  50  50  50  50  50  50  50  50  50  50  50  50  50  50  50  50  50
  50  50  50  50  86  86  86  86  86  86  86  86  86 266 266 266 266 266
 266 266 302 302 302 302 302 302 302 302 302 302 302 302 302 302 302 302
 302 302 302 266 266 266 266 266 266 266 266 266 266 266 266 266 266 266
 266 266 266]
atom N rad-grids = 75, ang-grids = [ 50  50  50  50  50  50  50  50  50  50  50  50  50  50  50  50  50  50
  50  50  50  50  50  86  86  86  86  86  86  86  86  86 266 266 266 266
 266 266 266 302 302 302 302 302 302 302 302 302 302 302 302 302 302 302
 302 302 302 302 266 266 266 266 266 266 266 266 266 266 266 266 266 266
 266 266 266]
atom C rad-grids = 75, ang-grids = [ 50  50  50  50  50  50  50  50  50  50  50  50  50  50  50  50  50  50
  50  50  50  50  50  86  86  86  86  86  86  86  86  86  86 266 266 266
 266 266 266 266 302 302 302 302 302 302 302 302 302 302 302 302 302 302
 302 302 302 302 302 302 266 266 266 266 266 266 266 266 266 266 266 266
 266 266 266]
atom H rad-grids = 50, ang-grids = [ 50  50  50  50  50  50  50  50  50  50  50  50  50  50  86  86  86  86
 266 266 266 266 302 302 302 302 302 302 302 302 302 302 302 302 302 266
 266 266 266 266 266 266 266 266 266 266 266 266 266 266]
tot grids = 1001482
Drop grids 206421
    CPU time for setting up grids    346.98 sec, wall time     18.64 sec
nelec by numeric integration = 314.0007631518219
    CPU time for vxc    513.26 sec, wall time     26.53 sec
******** <class 'pyscf.df.df.DF'> ********
auxbasis = None
max_memory = 160000
_cderi_to_save = /tmp/job.16252241.hpc/tmp8_a7c2l6
Default auxbasis def2-tzvp-jkfit is used for C def2-tzvp
Default auxbasis def2-tzvp-jkfit is used for N def2-tzvp
Default auxbasis def2-tzvp-jkfit is used for O def2-tzvp
Default auxbasis def2-tzvp-jkfit is used for H def2-tzvp
num shells = 1315, num cGTOs = 3965
size of aux basis 3965
int3c2e [1/2], AO [0:628], nrow = 1223830
int3c2e [2/2], AO [628:633], nrow = 14121
    CPU time for cholesky_eri   1109.78 sec, wall time    151.38 sec
    CPU time for df vj and vk   3810.91 sec, wall time    328.34 sec
Create RSH-DF object <pyscf.df.df.DF object at 0x7f181a52d128> for omega=0.3
******** <class 'pyscf.df.df.DF'> ********
auxbasis = None
max_memory = 160000
_cderi_to_save = /tmp/job.16252241.hpc/tmp3aca_ry3
Default auxbasis def2-tzvp-jkfit is used for C def2-tzvp
Default auxbasis def2-tzvp-jkfit is used for N def2-tzvp
Default auxbasis def2-tzvp-jkfit is used for O def2-tzvp
Default auxbasis def2-tzvp-jkfit is used for H def2-tzvp
num shells = 1315, num cGTOs = 3965
size of aux basis 3008
int3c2e [1/2], AO [0:483], nrow = 907878
int3c2e [2/2], AO [483:633], nrow = 330073
    CPU time for cholesky_eri   1534.05 sec, wall time    105.90 sec
    CPU time for df vj and vk   3696.07 sec, wall time    218.48 sec
E1 = -13530.129800427792  Ecoul = 6388.869191945297  Exc = -273.0688167345035
init E= -1952.24304222284
cond(S) = 2187271.6025805757
    CPU time for initialize scf   8388.89 sec, wall time    595.00 sec
  HOMO = -0.2725860131916  LUMO = 0.00668761846453367
  mo_energy =
[-1.92787521e+01 -1.92505057e+01 -1.92205184e+01 -1.92022722e+01
 -1.91601568e+01 -1.91575160e+01 -1.44513905e+01 -1.44344884e+01
 -1.44223683e+01 -1.44159503e+01 -1.04311620e+01 -1.04101280e+01
 -1.03571022e+01 -1.03379416e+01 -1.03269212e+01 -1.03205926e+01
 -1.03125973e+01 -1.03015957e+01 -1.03009253e+01 -1.02974476e+01
 -1.02970010e+01 -1.02939686e+01 -1.02936053e+01 -1.02889062e+01
 -1.02873671e+01 -1.02853111e+01 -1.02845090e+01 -1.02832003e+01
 -1.02817987e+01 -1.02817033e+01 -1.02784604e+01 -1.02780831e+01
 -1.02708499e+01 -1.02672212e+01 -1.02649081e+01 -1.02573241e+01
 -1.02516364e+01 -1.02510303e+01 -1.02468341e+01 -1.02466102e+01
 -1.02455451e+01 -1.02429106e+01 -1.02407841e+01 -1.26948286e+00
 -1.24609531e+00 -1.17372526e+00 -1.15784583e+00 -1.15709222e+00
 -1.14126702e+00 -1.11803572e+00 -1.10317217e+00 -1.09644868e+00
 -1.07546215e+00 -9.76523690e-01 -9.71704071e-01 -9.63244694e-01
 -9.38206514e-01 -9.34940351e-01 -9.28544176e-01 -9.25155131e-01
 -9.11370579e-01 -9.03917271e-01 -8.88223818e-01 -8.75046578e-01
 -8.56314910e-01 -8.43930088e-01 -8.35943012e-01 -8.27165773e-01
 -8.17365994e-01 -8.09899422e-01 -7.96903057e-01 -7.86716097e-01
 -7.67494103e-01 -7.57819635e-01 -7.55115364e-01 -7.40521803e-01
 -7.38318304e-01 -7.22571136e-01 -7.11749669e-01 -6.98100017e-01
 -6.82444899e-01 -6.76245433e-01 -6.68314316e-01 -6.63945760e-01
 -6.58670702e-01 -6.53371727e-01 -6.49340104e-01 -6.47422801e-01
 -6.36049779e-01 -6.30117388e-01 -6.25571164e-01 -6.13998807e-01
 -6.13211964e-01 -6.04914826e-01 -5.98393199e-01 -5.89344356e-01
 -5.84982076e-01 -5.80415485e-01 -5.76859171e-01 -5.71611096e-01
 -5.66122593e-01 -5.62667479e-01 -5.58030946e-01 -5.56538788e-01
 -5.52771192e-01 -5.48519990e-01 -5.46643179e-01 -5.43478806e-01
 -5.36701167e-01 -5.36277069e-01 -5.30887807e-01 -5.29870977e-01
 -5.27657151e-01 -5.25773376e-01 -5.21052229e-01 -5.20370288e-01
 -5.16837424e-01 -5.14994075e-01 -5.11760648e-01 -5.10692745e-01
 -5.04389287e-01 -5.02917056e-01 -4.97783405e-01 -4.97419825e-01
 -4.94707810e-01 -4.90620115e-01 -4.88668960e-01 -4.81497074e-01
 -4.80880193e-01 -4.77657489e-01 -4.74614089e-01 -4.70115521e-01
 -4.68256858e-01 -4.67268379e-01 -4.64625204e-01 -4.61925056e-01
 -4.59824547e-01 -4.58102924e-01 -4.54269928e-01 -4.49252622e-01
 -4.42796905e-01 -4.36850675e-01 -4.34939208e-01 -4.33896735e-01
 -4.21895010e-01 -4.21463756e-01 -4.19011100e-01 -3.98321433e-01
 -3.62612852e-01 -3.58730792e-01 -3.56079765e-01 -3.40740813e-01
 -3.38245965e-01 -3.32790766e-01 -3.21064849e-01 -2.89393322e-01
 -2.72586013e-01  6.68761846e-03  3.19657716e-02  5.88071108e-02
  6.73686929e-02  7.55162513e-02  8.36625350e-02  9.11806490e-02
  9.53326978e-02  1.02295362e-01  1.05328561e-01  1.09426303e-01
  1.15200390e-01  1.17589375e-01  1.21490420e-01  1.23151030e-01
  1.29784070e-01  1.34933979e-01  1.37455975e-01  1.41757763e-01
  1.44674396e-01  1.48141285e-01  1.50384265e-01  1.55093801e-01
  1.59839660e-01  1.60439136e-01  1.65272275e-01  1.66191884e-01
  1.70376223e-01  1.71072324e-01  1.75153073e-01  1.78468894e-01
  1.81193389e-01  1.83333407e-01  1.86639018e-01  1.88908203e-01
  1.94073209e-01  1.95787617e-01  1.98342075e-01  1.98958492e-01
  1.99296867e-01  2.03421632e-01  2.07862451e-01  2.09788473e-01
  2.11829546e-01  2.12591658e-01  2.15893831e-01  2.20977814e-01
  2.22546808e-01  2.25467600e-01  2.28806877e-01  2.31265962e-01
  2.32763019e-01  2.34501201e-01  2.35230909e-01  2.39665775e-01
  2.41564039e-01  2.48059999e-01  2.49020891e-01  2.50088504e-01
  2.52354059e-01  2.56663994e-01  2.59064901e-01  2.61127691e-01
  2.62603452e-01  2.65710855e-01  2.69037523e-01  2.70600218e-01
  2.74990203e-01  2.76406769e-01  2.80664063e-01  2.85639064e-01
  2.87229868e-01  2.90031244e-01  2.94158787e-01  2.95777746e-01
  2.99820158e-01  3.01745578e-01  3.04688890e-01  3.08676291e-01
  3.11449503e-01  3.12783313e-01  3.17367053e-01  3.18197345e-01
  3.18520043e-01  3.23492528e-01  3.28151227e-01  3.29345134e-01
  3.30990747e-01  3.33984850e-01  3.34711472e-01  3.37331727e-01
  3.39415926e-01  3.39522831e-01  3.46342474e-01  3.47471709e-01
  3.51545463e-01  3.54662750e-01  3.55932882e-01  3.58445865e-01
  3.60242799e-01  3.64477055e-01  3.66903551e-01  3.72615055e-01
  3.74534714e-01  3.78792966e-01  3.81833501e-01  3.83345307e-01
  3.84341402e-01  3.89976146e-01  3.90371201e-01  3.91971207e-01
  3.93215349e-01  3.99317358e-01  4.00903483e-01  4.02133233e-01
  4.06006420e-01  4.10812797e-01  4.13641504e-01  4.15529624e-01
  4.17381987e-01  4.20454856e-01  4.22912106e-01  4.25137515e-01
  4.28010236e-01  4.30127718e-01  4.30844198e-01  4.34973036e-01
  4.37596012e-01  4.42112100e-01  4.42307371e-01  4.42750213e-01
  4.45488911e-01  4.49650928e-01  4.50354873e-01  4.58540201e-01
  4.58635508e-01  4.61033544e-01  4.63939468e-01  4.69042761e-01
  4.70028161e-01  4.72229601e-01  4.73210005e-01  4.76505745e-01
  4.77770172e-01  4.79385883e-01  4.83587986e-01  4.84559056e-01
  4.84652349e-01  4.88827494e-01  4.90448663e-01  4.93676160e-01
  4.94867691e-01  4.95815027e-01  4.99379445e-01  4.99613838e-01
  5.00050507e-01  5.03504670e-01  5.05668963e-01  5.08943831e-01
  5.11917088e-01  5.14243776e-01  5.16388702e-01  5.18425852e-01
  5.19863838e-01  5.21610121e-01  5.23386199e-01  5.27045258e-01
  5.29109844e-01  5.29652366e-01  5.32743050e-01  5.33597925e-01
  5.35563330e-01  5.39384723e-01  5.41899909e-01  5.42821317e-01
  5.46675770e-01  5.49168358e-01  5.50610779e-01  5.52586894e-01
  5.54710113e-01  5.56247794e-01  5.57823245e-01  5.62586551e-01
  5.65122003e-01  5.66651708e-01  5.70251579e-01  5.72279206e-01
  5.72969380e-01  5.76120626e-01  5.78536633e-01  5.79682882e-01
  5.80486843e-01  5.83487435e-01  5.84537830e-01  5.87335275e-01
  5.92420359e-01  5.95964563e-01  5.96263625e-01  6.00076517e-01
  6.01903338e-01  6.02950275e-01  6.06395588e-01  6.07227721e-01
  6.08270623e-01  6.11870607e-01  6.12438318e-01  6.18149557e-01
  6.20154286e-01  6.21719830e-01  6.27840442e-01  6.29077873e-01
  6.30695896e-01  6.35401082e-01  6.37285532e-01  6.40635916e-01
  6.42943963e-01  6.44488029e-01  6.46751431e-01  6.50121099e-01
  6.52493539e-01  6.55417592e-01  6.58992016e-01  6.60203337e-01
  6.61870663e-01  6.63804068e-01  6.66724703e-01  6.68427048e-01
  6.77097538e-01  6.78321104e-01  6.80285415e-01  6.84499846e-01
  6.87226099e-01  6.87649409e-01  6.94007635e-01  6.97173739e-01
  7.01255922e-01  7.03774156e-01  7.04119767e-01  7.09142646e-01
  7.11861277e-01  7.14541276e-01  7.16321003e-01  7.19468411e-01
  7.21005458e-01  7.28114196e-01  7.30153895e-01  7.33369379e-01
  7.38644677e-01  7.40243680e-01  7.43734717e-01  7.45806941e-01
  7.49019256e-01  7.50675736e-01  7.52916919e-01  7.55461374e-01
  7.61644986e-01  7.65167185e-01  7.68738739e-01  7.71148167e-01
  7.75651342e-01  7.78313066e-01  7.80441962e-01  7.83451786e-01
  7.87154229e-01  7.91976405e-01  7.93953442e-01  7.97706844e-01
  7.99007650e-01  8.01510414e-01  8.07144760e-01  8.07786303e-01
  8.14020625e-01  8.16278452e-01  8.17179106e-01  8.25086403e-01
  8.31025086e-01  8.31971596e-01  8.36764520e-01  8.38738246e-01
  8.40924710e-01  8.44053978e-01  8.49066400e-01  8.55601666e-01
  8.55896566e-01  8.61898852e-01  8.64935499e-01  8.69924058e-01
  8.74855989e-01  8.77129284e-01  8.82097668e-01  8.89878604e-01
  8.90718312e-01  8.92851786e-01  8.94256223e-01  8.97231248e-01
  9.01538679e-01  9.03379786e-01  9.07792036e-01  9.09978694e-01
  9.12682480e-01  9.19611248e-01  9.21571903e-01  9.25487748e-01
  9.29256495e-01  9.36046913e-01  9.41160639e-01  9.44122307e-01
  9.49123363e-01  9.53886489e-01  9.56588796e-01  9.62045851e-01
  9.64139054e-01  9.66273427e-01  9.68866177e-01  9.76334196e-01
  9.77186440e-01  9.80039803e-01  9.82748016e-01  9.86297857e-01
  9.90019731e-01  9.95193459e-01  9.98092852e-01  1.00025967e+00
  1.00682032e+00  1.00864845e+00  1.01311456e+00  1.01535831e+00
  1.02203809e+00  1.02503469e+00  1.02711161e+00  1.03191650e+00
  1.03579474e+00  1.03965000e+00  1.04810592e+00  1.04840314e+00
  1.05056676e+00  1.05354099e+00  1.05648644e+00  1.06521351e+00
  1.06856753e+00  1.07081034e+00  1.07407817e+00  1.07936070e+00
  1.08087701e+00  1.08261183e+00  1.08519925e+00  1.09064780e+00
  1.09489754e+00  1.09816668e+00  1.10382202e+00  1.10507168e+00
  1.10775634e+00  1.10911906e+00  1.11167667e+00  1.11733114e+00
  1.12293277e+00  1.12634431e+00  1.12902921e+00  1.13445810e+00
  1.13864620e+00  1.14421783e+00  1.14629193e+00  1.14864408e+00
  1.15523435e+00  1.15941583e+00  1.16747467e+00  1.17165080e+00
  1.17488711e+00  1.17905122e+00  1.18074866e+00  1.18657689e+00
  1.19019796e+00  1.19120596e+00  1.19909208e+00  1.19966109e+00
  1.20263934e+00  1.20665202e+00  1.20910775e+00  1.21258731e+00
  1.21809035e+00  1.22333829e+00  1.22650838e+00  1.22921574e+00
  1.23534736e+00  1.23766673e+00  1.24293930e+00  1.24692605e+00
  1.25117952e+00  1.25638160e+00  1.26085905e+00  1.26420957e+00
  1.26718088e+00  1.27279356e+00  1.27506223e+00  1.27827574e+00
  1.27883678e+00  1.28689458e+00  1.29123927e+00  1.29452579e+00
  1.29526006e+00  1.29757265e+00  1.30240496e+00  1.30858969e+00
  1.31311360e+00  1.31907834e+00  1.32256393e+00  1.32390391e+00
  1.32853917e+00  1.33287747e+00  1.33476145e+00  1.34234092e+00
  1.34412060e+00  1.35126578e+00  1.35786700e+00  1.36231772e+00
  1.36497713e+00  1.36655170e+00  1.37361363e+00  1.37652560e+00
  1.37846023e+00  1.38211935e+00  1.38732214e+00  1.39555125e+00
  1.39906482e+00  1.40294135e+00  1.40921754e+00  1.41216098e+00
  1.41697983e+00  1.41908285e+00  1.42665413e+00  1.42694150e+00
  1.43132451e+00  1.43439969e+00  1.44327015e+00  1.44641681e+00
  1.44827858e+00  1.44928692e+00  1.45195927e+00  1.45583385e+00
  1.46304596e+00  1.46910588e+00  1.47380700e+00  1.48073644e+00
  1.48249686e+00  1.48790587e+00  1.49252242e+00  1.49544114e+00
  1.50199984e+00  1.50722524e+00  1.51074884e+00  1.51685381e+00
  1.51714799e+00  1.52480999e+00  1.52837596e+00  1.53074486e+00
  1.53336431e+00  1.53902550e+00  1.54819709e+00  1.55586886e+00
  1.55963956e+00  1.56126943e+00  1.56334321e+00  1.56774278e+00
  1.57419977e+00  1.57752901e+00  1.58098670e+00  1.58609068e+00
  1.59103106e+00  1.59825452e+00  1.60050444e+00  1.60585715e+00
  1.61066051e+00  1.61605117e+00  1.61913216e+00  1.62256213e+00
  1.63055115e+00  1.63291271e+00  1.63804365e+00  1.64236076e+00
  1.64301323e+00  1.64740403e+00  1.64982401e+00  1.65160304e+00
  1.65289819e+00  1.65857078e+00  1.66085617e+00  1.66620873e+00
  1.66986921e+00  1.67194864e+00  1.67353086e+00  1.67613955e+00
  1.68073242e+00  1.68254331e+00  1.68557322e+00  1.68910227e+00
  1.69339741e+00  1.69753251e+00  1.69955697e+00  1.70467280e+00
  1.70749864e+00  1.71079612e+00  1.71270045e+00  1.71442378e+00
  1.72072110e+00  1.72186096e+00  1.72457285e+00  1.72644989e+00
  1.73439106e+00  1.73696447e+00  1.73961480e+00  1.74694277e+00
  1.74971891e+00  1.75305156e+00  1.75784024e+00  1.76122493e+00
  1.76337536e+00  1.76894132e+00  1.76989274e+00  1.77230521e+00
  1.77725156e+00  1.78192093e+00  1.78565468e+00  1.79067348e+00
  1.79396275e+00  1.79499346e+00  1.79922102e+00  1.80440071e+00
  1.80483337e+00  1.80978231e+00  1.81372157e+00  1.81428027e+00
  1.81917067e+00  1.82247769e+00  1.82641337e+00  1.83055231e+00
  1.83319810e+00  1.83698174e+00  1.84145045e+00  1.84408764e+00
  1.85232259e+00  1.85494141e+00  1.85571808e+00  1.86531535e+00
  1.86626114e+00  1.86897865e+00  1.87166376e+00  1.87725458e+00
  1.88363741e+00  1.89061206e+00  1.89383761e+00  1.89610976e+00
  1.90346471e+00  1.90743347e+00  1.91430572e+00  1.91923076e+00
  1.92270307e+00  1.92751506e+00  1.93161731e+00  1.93556549e+00
  1.93828846e+00  1.94270593e+00  1.94733246e+00  1.94862949e+00
  1.95441761e+00  1.95912892e+00  1.96329205e+00  1.96855376e+00
  1.96980450e+00  1.97654479e+00  1.98352652e+00  1.98545151e+00
  1.98741305e+00  1.99119174e+00  1.99436396e+00  1.99578287e+00
  2.00348481e+00  2.00396785e+00  2.00566098e+00  2.01007825e+00
  2.02111435e+00  2.02302111e+00  2.02792536e+00  2.03148722e+00
  2.03676153e+00  2.03959930e+00  2.04319129e+00  2.04996772e+00
  2.05575714e+00  2.05748101e+00  2.06567060e+00  2.06758498e+00
  2.06938102e+00  2.07458422e+00  2.07587427e+00  2.08152604e+00
  2.08282796e+00  2.08633927e+00  2.08928017e+00  2.09725242e+00
  2.10104799e+00  2.10674684e+00  2.10954067e+00  2.11668975e+00
  2.11977355e+00  2.12165309e+00  2.12539549e+00  2.12979068e+00
  2.13352990e+00  2.13885939e+00  2.14303670e+00  2.14720480e+00
  2.14914097e+00  2.15321229e+00  2.15498919e+00  2.16436078e+00
  2.16550157e+00  2.16963903e+00  2.17460948e+00  2.17857275e+00
  2.18482666e+00  2.18830795e+00  2.19288783e+00  2.19505512e+00
  2.20081273e+00  2.21047402e+00  2.21163073e+00  2.21798020e+00
  2.21986582e+00  2.22271684e+00  2.22620910e+00  2.23390580e+00
  2.23601677e+00  2.24079243e+00  2.24945047e+00  2.25060139e+00
  2.25376952e+00  2.25473125e+00  2.26480022e+00  2.26508225e+00
  2.27323821e+00  2.27763256e+00  2.28621935e+00  2.28882447e+00
  2.29020521e+00  2.29497573e+00  2.29570930e+00  2.30144190e+00
  2.30561372e+00  2.30900916e+00  2.31079976e+00  2.31425845e+00
  2.31729456e+00  2.32267227e+00  2.33096472e+00  2.33652492e+00
  2.33790988e+00  2.34111898e+00  2.34596946e+00  2.34954222e+00
  2.35359007e+00  2.36217332e+00  2.36515423e+00  2.36874538e+00
  2.37518933e+00  2.37948479e+00  2.38088013e+00  2.38546008e+00
  2.38913627e+00  2.39096640e+00  2.39552740e+00  2.40466688e+00
  2.40528701e+00  2.40849881e+00  2.41241149e+00  2.41804742e+00
  2.42016501e+00  2.42555249e+00  2.42851221e+00  2.43467305e+00
  2.43621087e+00  2.43830708e+00  2.44547331e+00  2.45052031e+00
  2.45366247e+00  2.46079334e+00  2.46271700e+00  2.46896413e+00
  2.47096668e+00  2.47470736e+00  2.47616253e+00  2.48000694e+00
  2.48485809e+00  2.49050065e+00  2.49334217e+00  2.49483525e+00
  2.50062557e+00  2.50545203e+00  2.51036591e+00  2.51412942e+00
  2.52070662e+00  2.52095465e+00  2.52623363e+00  2.53055075e+00
  2.53316534e+00  2.53640213e+00  2.54061913e+00  2.54672686e+00
  2.55039206e+00  2.55141227e+00  2.55439416e+00  2.55640403e+00
  2.56051189e+00  2.56424463e+00  2.56871672e+00  2.56958001e+00
  2.57534137e+00  2.58136420e+00  2.58805509e+00  2.59107689e+00
  2.60163719e+00  2.60257469e+00  2.60664486e+00  2.61201942e+00
  2.61892893e+00  2.62288688e+00  2.62483728e+00  2.63313347e+00
  2.63431444e+00  2.63568628e+00  2.64103913e+00  2.64261759e+00
  2.64456269e+00  2.65011846e+00  2.65512618e+00  2.65783155e+00
  2.66110431e+00  2.66245751e+00  2.67137516e+00  2.67514354e+00
  2.67952164e+00  2.68166713e+00  2.69018030e+00  2.69172445e+00
  2.69350274e+00  2.69904366e+00  2.70033647e+00  2.70278444e+00
  2.70615279e+00  2.71291476e+00  2.71456840e+00  2.71734742e+00
  2.72245441e+00  2.72376311e+00  2.72858078e+00  2.73079877e+00
  2.73707875e+00  2.74239579e+00  2.74434925e+00  2.74755466e+00
  2.75077965e+00  2.75290225e+00  2.75527002e+00  2.75895044e+00
  2.76306151e+00  2.77066617e+00  2.77806179e+00  2.78213350e+00
  2.78366453e+00  2.78489852e+00  2.78953036e+00  2.79348920e+00
  2.79583739e+00  2.80039257e+00  2.80165172e+00  2.80368049e+00
  2.81715512e+00  2.81841020e+00  2.82027559e+00  2.82724640e+00
  2.82863276e+00  2.83273714e+00  2.83687293e+00  2.84055664e+00
  2.84475042e+00  2.84642286e+00  2.85350739e+00  2.85539107e+00
  2.86203622e+00  2.86387578e+00  2.87039652e+00  2.87504847e+00
  2.88149762e+00  2.88343467e+00  2.88974139e+00  2.88995487e+00
  2.89839048e+00  2.89929887e+00  2.90291062e+00  2.90832237e+00
  2.90888674e+00  2.91277453e+00  2.91585997e+00  2.92080419e+00
  2.92407612e+00  2.93059577e+00  2.93388330e+00  2.93657676e+00
  2.94055473e+00  2.94279524e+00  2.94765559e+00  2.94996948e+00
  2.95236774e+00  2.95816848e+00  2.95910009e+00  2.96393490e+00
  2.96998184e+00  2.97468234e+00  2.97890873e+00  2.98237378e+00
  2.98555280e+00  2.98889016e+00  2.99625400e+00  2.99997124e+00
  3.00283301e+00  3.00416133e+00  3.01382091e+00  3.02095647e+00
  3.03248103e+00  3.03495199e+00  3.04042519e+00  3.04417753e+00
  3.04700103e+00  3.04968104e+00  3.05559544e+00  3.05857020e+00
  3.06209716e+00  3.06325898e+00  3.06929033e+00  3.07573874e+00
  3.07806565e+00  3.08333029e+00  3.08510368e+00  3.08955677e+00
  3.09395380e+00  3.09834329e+00  3.10074172e+00  3.10440404e+00
  3.10685285e+00  3.11067684e+00  3.11623418e+00  3.11706634e+00
  3.12020397e+00  3.12293102e+00  3.12929634e+00  3.13618384e+00
  3.13873146e+00  3.14207997e+00  3.14478782e+00  3.14575102e+00
  3.14970180e+00  3.15346155e+00  3.15713960e+00  3.15961235e+00
  3.16241880e+00  3.16905284e+00  3.16985187e+00  3.17496901e+00
  3.17677649e+00  3.18088135e+00  3.18308026e+00  3.18597130e+00
  3.19171995e+00  3.19552851e+00  3.19961125e+00  3.20202728e+00
  3.20585013e+00  3.20854486e+00  3.21184777e+00  3.21755456e+00
  3.21912592e+00  3.22056851e+00  3.22474467e+00  3.23026119e+00
  3.23149832e+00  3.23299957e+00  3.23760750e+00  3.24076412e+00
  3.24411367e+00  3.24765129e+00  3.25048921e+00  3.25266549e+00
  3.25750115e+00  3.25853083e+00  3.26282622e+00  3.26644939e+00
  3.27016751e+00  3.27080807e+00  3.27588867e+00  3.28160062e+00
  3.28410228e+00  3.28767759e+00  3.29372576e+00  3.29833720e+00
  3.29893718e+00  3.30338049e+00  3.30629848e+00  3.30833880e+00
  3.31301402e+00  3.31359054e+00  3.31731804e+00  3.32643377e+00
  3.32871997e+00  3.33144342e+00  3.33607017e+00  3.33839500e+00
  3.34077718e+00  3.34305453e+00  3.34498071e+00  3.35080207e+00
  3.35356952e+00  3.35598581e+00  3.35787195e+00  3.35926341e+00
  3.36499802e+00  3.36623499e+00  3.37056098e+00  3.37343746e+00
  3.37919160e+00  3.38022077e+00  3.38048779e+00  3.38468329e+00
  3.38650619e+00  3.39359247e+00  3.39600456e+00  3.39762396e+00
  3.40065227e+00  3.40194505e+00  3.40618093e+00  3.40670336e+00
  3.40983706e+00  3.41426639e+00  3.41615357e+00  3.42172452e+00
  3.42378549e+00  3.42721677e+00  3.43163614e+00  3.43448814e+00
  3.43751800e+00  3.43884674e+00  3.44516206e+00  3.44893964e+00
  3.45123136e+00  3.45539578e+00  3.45833164e+00  3.46039264e+00
  3.46443528e+00  3.46604897e+00  3.46853922e+00  3.47152309e+00
  3.47332625e+00  3.47810852e+00  3.48024318e+00  3.48508471e+00
  3.48621928e+00  3.48954349e+00  3.49476371e+00  3.49783648e+00
  3.50029231e+00  3.50331751e+00  3.50649399e+00  3.50892905e+00
  3.51306943e+00  3.51616267e+00  3.52098782e+00  3.52247883e+00
  3.52642016e+00  3.52920426e+00  3.53276173e+00  3.53484489e+00
  3.54094168e+00  3.54517407e+00  3.54779790e+00  3.55239540e+00
  3.55545563e+00  3.55740339e+00  3.56186032e+00  3.56582795e+00
  3.56995089e+00  3.57427549e+00  3.57729469e+00  3.57785181e+00
  3.58336530e+00  3.58436278e+00  3.58965015e+00  3.59014588e+00
  3.59558126e+00  3.59668415e+00  3.60808093e+00  3.60977746e+00
  3.61671109e+00  3.62012673e+00  3.62321863e+00  3.62563922e+00
  3.62868454e+00  3.63725576e+00  3.64101853e+00  3.64344464e+00
  3.64755973e+00  3.65413356e+00  3.65622072e+00  3.65814188e+00
  3.66190006e+00  3.67103794e+00  3.67662770e+00  3.68004833e+00
  3.68396900e+00  3.68673998e+00  3.69282602e+00  3.69523005e+00
  3.69913581e+00  3.70468458e+00  3.70965824e+00  3.71412844e+00
  3.72123670e+00  3.72308263e+00  3.72565526e+00  3.72800081e+00
  3.73618115e+00  3.74069583e+00  3.74235239e+00  3.74536209e+00
  3.75612405e+00  3.76425897e+00  3.76525029e+00  3.76933409e+00
  3.77450225e+00  3.78207879e+00  3.78619468e+00  3.78967192e+00
  3.79444406e+00  3.80036458e+00  3.80256824e+00  3.80909801e+00
  3.81424540e+00  3.81859383e+00  3.82410801e+00  3.82739619e+00
  3.83066601e+00  3.83307191e+00  3.83954126e+00  3.84294867e+00
  3.84885512e+00  3.85008701e+00  3.85272948e+00  3.85771100e+00
  3.86000375e+00  3.86711766e+00  3.87341957e+00  3.87913394e+00
  3.88183195e+00  3.88861756e+00  3.89201002e+00  3.89842916e+00
  3.90288983e+00  3.90943064e+00  3.91105416e+00  3.91147323e+00
  3.92144194e+00  3.92559777e+00  3.93302346e+00  3.93668571e+00
  3.94312012e+00  3.94471410e+00  3.95108217e+00  3.95746965e+00
  3.96328505e+00  3.97075911e+00  3.97438494e+00  3.98124769e+00
  3.98296699e+00  3.98801497e+00  3.99155659e+00  3.99520150e+00
  3.99993405e+00  4.00406663e+00  4.01279968e+00  4.01605317e+00
  4.02242510e+00  4.03203183e+00  4.03673669e+00  4.04308297e+00
  4.04422530e+00  4.05112957e+00  4.06180811e+00  4.06553515e+00
  4.06934909e+00  4.07277124e+00  4.07442951e+00  4.07882557e+00
  4.08539031e+00  4.08839314e+00  4.09019266e+00  4.10173062e+00
  4.10931367e+00  4.11266655e+00  4.12144070e+00  4.12770629e+00
  4.12865011e+00  4.13493222e+00  4.13761471e+00  4.15012590e+00
  4.15748645e+00  4.16438662e+00  4.16967346e+00  4.17600206e+00
  4.18150679e+00  4.18679765e+00  4.19234745e+00  4.20021615e+00
  4.20825073e+00  4.21337736e+00  4.22152954e+00  4.22387626e+00
  4.23214050e+00  4.23395332e+00  4.23745076e+00  4.24699005e+00
  4.25466161e+00  4.25723417e+00  4.27005002e+00  4.27212623e+00
  4.28308404e+00  4.28900455e+00  4.29349571e+00  4.29785837e+00
  4.30476051e+00  4.31104589e+00  4.31668718e+00  4.32916376e+00
  4.33380616e+00  4.33761886e+00  4.34140830e+00  4.35860318e+00
  4.36598419e+00  4.36730966e+00  4.37996808e+00  4.38265158e+00
  4.38846723e+00  4.39525533e+00  4.40041114e+00  4.41097651e+00
  4.41958340e+00  4.42605977e+00  4.44409599e+00  4.44684219e+00
  4.45056005e+00  4.45182327e+00  4.45448158e+00  4.45975343e+00
  4.47014924e+00  4.47273698e+00  4.47573574e+00  4.48245565e+00
  4.48868252e+00  4.49147326e+00  4.49701091e+00  4.50231200e+00
  4.50591045e+00  4.51727230e+00  4.51978032e+00  4.53316782e+00
  4.53759987e+00  4.54395815e+00  4.55016684e+00  4.55522364e+00
  4.56144653e+00  4.57036744e+00  4.57562148e+00  4.58225604e+00
  4.59177840e+00  4.60255288e+00  4.60866728e+00  4.61199263e+00
  4.62291378e+00  4.63300793e+00  4.63752807e+00  4.64015121e+00
  4.65033456e+00  4.65743532e+00  4.66093014e+00  4.66655204e+00
  4.67449675e+00  4.67882619e+00  4.68793342e+00  4.70262273e+00
  4.70790308e+00  4.71107030e+00  4.71765794e+00  4.72792670e+00
  4.73601076e+00  4.74309146e+00  4.75355449e+00  4.77168214e+00
  4.77451131e+00  4.78299745e+00  4.80025244e+00  4.80258755e+00
  4.82327779e+00  4.83243406e+00  4.83892453e+00  4.85272407e+00
  4.86379365e+00  4.86962836e+00  4.87903737e+00  4.88650444e+00
  4.89066629e+00  4.89557644e+00  4.90573002e+00  4.91713203e+00
  4.92167019e+00  4.92564412e+00  4.93596106e+00  4.94136361e+00
  4.95056714e+00  4.95255057e+00  4.95766561e+00  4.96226866e+00
  4.97682413e+00  4.97729751e+00  4.99551153e+00  5.00781484e+00
  5.01618876e+00  5.02102226e+00  5.03409247e+00  5.04183940e+00
  5.05438319e+00  5.06491039e+00  5.08047369e+00  5.08783795e+00
  5.09580340e+00  5.11007932e+00  5.11580550e+00  5.13907796e+00
  5.14332060e+00  5.15061593e+00  5.16029573e+00  5.17555969e+00
  5.18756652e+00  5.19685209e+00  5.20288483e+00  5.21449521e+00
  5.22169992e+00  5.22638205e+00  5.24018111e+00  5.24538029e+00
  5.25288666e+00  5.25834796e+00  5.26068525e+00  5.26363784e+00
  5.26618166e+00  5.26982475e+00  5.28009306e+00  5.28299957e+00
  5.29725785e+00  5.31166008e+00  5.31367311e+00  5.32094042e+00
  5.33371190e+00  5.33939203e+00  5.34269927e+00  5.34821112e+00
  5.35752817e+00  5.37264006e+00  5.38071207e+00  5.38542481e+00
  5.39357206e+00  5.40249000e+00  5.40677562e+00  5.41480116e+00
  5.41951975e+00  5.42743501e+00  5.43840860e+00  5.44046603e+00
  5.45174027e+00  5.45623294e+00  5.46050740e+00  5.46820396e+00
  5.48519947e+00  5.52411103e+00  5.53270099e+00  5.54801006e+00
  5.54969091e+00  5.56776635e+00  5.57334361e+00  5.58924749e+00
  5.60292905e+00  5.61857852e+00  5.65808751e+00  5.66645114e+00
  5.67902399e+00  5.68246342e+00  5.69852034e+00  5.69970563e+00
  5.74201300e+00  5.74515116e+00  5.76503547e+00  5.77764479e+00
  5.79882848e+00  5.81312678e+00  5.82103694e+00  5.82368838e+00
  5.85612726e+00  5.86327221e+00  5.86778366e+00  5.88166674e+00
  5.92589576e+00  5.93860911e+00  5.94621214e+00  5.99567194e+00
  6.00564126e+00  6.02925388e+00  6.03092359e+00  6.04927679e+00
  6.05591178e+00  6.11150744e+00  6.14229511e+00  6.17189695e+00
  6.18356843e+00  6.19390191e+00  6.21019900e+00  6.27014165e+00
  6.27325586e+00  6.29773559e+00  6.31506064e+00  6.33616838e+00
  6.39970354e+00  6.40741175e+00  6.45293003e+00  6.48316375e+00
  6.50750564e+00  6.51597715e+00  6.52191179e+00  6.52588432e+00
  6.55418587e+00  6.56777244e+00  6.61226302e+00  6.68725626e+00
  6.69610381e+00  6.72049436e+00  6.73453557e+00  6.76899070e+00
  6.77454196e+00  6.82873325e+00  6.83019339e+00  6.83871190e+00
  6.89611972e+00  6.90304729e+00  6.91727505e+00  6.94450099e+00
  6.97193120e+00  6.97631723e+00  6.98772169e+00  7.03491957e+00
  7.15734163e+00  7.17271938e+00  7.18613596e+00  7.21106998e+00
  7.21457904e+00  7.23245497e+00  7.23308794e+00  7.24266008e+00
  7.35241796e+00  7.40261725e+00  2.23711579e+01  2.23744948e+01
  2.24644006e+01  2.24675617e+01  2.24789079e+01  2.25375915e+01
  2.25555022e+01  2.25705424e+01  2.25960072e+01  2.26092157e+01
  2.26501094e+01  2.26977296e+01  2.27199070e+01  2.27300346e+01
  2.27596543e+01  2.27759598e+01  2.27938348e+01  2.28511077e+01
  2.28700424e+01  2.28845066e+01  2.30613822e+01  2.31193752e+01
  2.32410389e+01  2.33149034e+01  2.33224637e+01  2.33724280e+01
  2.33940160e+01  2.34152788e+01  2.34586533e+01  2.34620478e+01
  2.35374164e+01  2.36391748e+01  2.37858596e+01  3.25550822e+01
  3.25943258e+01  3.26964218e+01  3.27361736e+01  4.38222214e+01
  4.38879197e+01  4.39879193e+01  4.40119628e+01  4.40807356e+01
  4.41120653e+01]
nelec by numeric integration = 314.00148360946673
    CPU time for vxc    369.83 sec, wall time     19.17 sec
    CPU time for df vj and vk   2683.71 sec, wall time    150.98 sec
    CPU time for df vj and vk   2049.48 sec, wall time    104.37 sec
E1 = -13530.129822632573  Ecoul = 6388.869104935992  Exc = -273.0695144556802
cycle= 1 E= -1952.2438491581  delta_E= -0.000807  |g|= 0.000698  |ddm|= 0.0404
    CPU time for cycle= 1   5125.10 sec, wall time    276.50 sec
  HOMO = -0.272585381817076  LUMO = 0.00668792315299051
  mo_energy =
[-1.92789300e+01 -1.92505037e+01 -1.92205096e+01 -1.92022701e+01
 -1.91601598e+01 -1.91575145e+01 -1.44513900e+01 -1.44344874e+01
 -1.44223683e+01 -1.44159502e+01 -1.04311160e+01 -1.04101252e+01
 -1.03571024e+01 -1.03379400e+01 -1.03269199e+01 -1.03205923e+01
 -1.03125972e+01 -1.03015937e+01 -1.03009233e+01 -1.02974461e+01
 -1.02970008e+01 -1.02939630e+01 -1.02936041e+01 -1.02889057e+01
 -1.02873669e+01 -1.02853110e+01 -1.02845088e+01 -1.02832006e+01
 -1.02817982e+01 -1.02817028e+01 -1.02784602e+01 -1.02780811e+01
 -1.02708487e+01 -1.02672207e+01 -1.02649078e+01 -1.02573238e+01
 -1.02516364e+01 -1.02510303e+01 -1.02468343e+01 -1.02466104e+01
 -1.02455438e+01 -1.02429108e+01 -1.02407841e+01 -1.26951043e+00
 -1.24609325e+00 -1.17373936e+00 -1.15784544e+00 -1.15709041e+00
 -1.14126755e+00 -1.11803503e+00 -1.10317171e+00 -1.09644780e+00
 -1.07546193e+00 -9.76522486e-01 -9.71702344e-01 -9.63244420e-01
 -9.38206067e-01 -9.34939918e-01 -9.28544062e-01 -9.25154961e-01
 -9.11370393e-01 -9.03917054e-01 -8.88223613e-01 -8.75046514e-01
 -8.56315766e-01 -8.43929647e-01 -8.35942720e-01 -8.27165439e-01
 -8.17365788e-01 -8.09900327e-01 -7.96905233e-01 -7.86718438e-01
 -7.67493812e-01 -7.57825271e-01 -7.55115725e-01 -7.40528094e-01
 -7.38320787e-01 -7.22569949e-01 -7.11750084e-01 -6.98099140e-01
 -6.82444299e-01 -6.76245222e-01 -6.68314093e-01 -6.63945423e-01
 -6.58670034e-01 -6.53369955e-01 -6.49345347e-01 -6.47422639e-01
 -6.36049673e-01 -6.30118283e-01 -6.25572599e-01 -6.13998801e-01
 -6.13214587e-01 -6.04921937e-01 -5.98393010e-01 -5.89344415e-01
 -5.84981856e-01 -5.80416458e-01 -5.76861591e-01 -5.71611478e-01
 -5.66122334e-01 -5.62666715e-01 -5.58032912e-01 -5.56543258e-01
 -5.52771168e-01 -5.48519923e-01 -5.46642872e-01 -5.43484546e-01
 -5.36700927e-01 -5.36276674e-01 -5.30890515e-01 -5.29870085e-01
 -5.27657330e-01 -5.25774395e-01 -5.21052696e-01 -5.20370340e-01
 -5.16837327e-01 -5.14994326e-01 -5.11760957e-01 -5.10693359e-01
 -5.04388908e-01 -5.02920099e-01 -4.97784469e-01 -4.97419534e-01
 -4.94707693e-01 -4.90619936e-01 -4.88668231e-01 -4.81496941e-01
 -4.80880024e-01 -4.77657042e-01 -4.74613868e-01 -4.70115036e-01
 -4.68256934e-01 -4.67268444e-01 -4.64636431e-01 -4.61926963e-01
 -4.59826576e-01 -4.58103959e-01 -4.54271059e-01 -4.49252172e-01
 -4.42795715e-01 -4.36849145e-01 -4.34939060e-01 -4.33896289e-01
 -4.21897405e-01 -4.21463107e-01 -4.19010668e-01 -3.98319891e-01
 -3.62612458e-01 -3.58730000e-01 -3.56079359e-01 -3.40740357e-01
 -3.38246356e-01 -3.32790510e-01 -3.21064660e-01 -2.89393049e-01
 -2.72585382e-01  6.68792315e-03  3.19666643e-02  5.88100201e-02
  6.73705829e-02  7.55170068e-02  8.36629033e-02  9.11809687e-02
  9.53301517e-02  1.02295111e-01  1.05324536e-01  1.09426174e-01
  1.15200851e-01  1.17589623e-01  1.21489533e-01  1.23151299e-01
  1.29784414e-01  1.34932470e-01  1.37455598e-01  1.41757967e-01
  1.44674771e-01  1.48141232e-01  1.50384493e-01  1.55094083e-01
  1.59839740e-01  1.60439156e-01  1.65272666e-01  1.66191985e-01
  1.70376333e-01  1.71072391e-01  1.75153561e-01  1.78468849e-01
  1.81193445e-01  1.83334017e-01  1.86639064e-01  1.88908911e-01
  1.94073284e-01  1.95787884e-01  1.98342613e-01  1.98958518e-01
  1.99296898e-01  2.03421388e-01  2.07862836e-01  2.09788574e-01
  2.11829721e-01  2.12591952e-01  2.15894069e-01  2.20978038e-01
  2.22547149e-01  2.25467873e-01  2.28807227e-01  2.31266146e-01
  2.32763409e-01  2.34501425e-01  2.35231209e-01  2.39666119e-01
  2.41564112e-01  2.48060835e-01  2.49021006e-01  2.50088985e-01
  2.52354162e-01  2.56664301e-01  2.59064926e-01  2.61127547e-01
  2.62603961e-01  2.65711209e-01  2.69037693e-01  2.70601025e-01
  2.74989921e-01  2.76406885e-01  2.80664444e-01  2.85639361e-01
  2.87230137e-01  2.90029784e-01  2.94159042e-01  2.95778388e-01
  2.99819888e-01  3.01744282e-01  3.04689142e-01  3.08676555e-01
  3.11449567e-01  3.12783315e-01  3.17367400e-01  3.18197752e-01
  3.18520507e-01  3.23493053e-01  3.28151561e-01  3.29345666e-01
  3.30990842e-01  3.33985011e-01  3.34711685e-01  3.37331972e-01
  3.39416341e-01  3.39523107e-01  3.46342719e-01  3.47472198e-01
  3.51545499e-01  3.54663066e-01  3.55933126e-01  3.58446534e-01
  3.60243750e-01  3.64477320e-01  3.66904160e-01  3.72615507e-01
  3.74534886e-01  3.78793081e-01  3.81832975e-01  3.83345930e-01
  3.84340976e-01  3.89976107e-01  3.90371026e-01  3.91971081e-01
  3.93215515e-01  3.99317088e-01  4.00901707e-01  4.02133700e-01
  4.06006678e-01  4.10813101e-01  4.13641845e-01  4.15529022e-01
  4.17382067e-01  4.20454687e-01  4.22912369e-01  4.25133840e-01
  4.28010672e-01  4.30127931e-01  4.30844261e-01  4.34973305e-01
  4.37595984e-01  4.42111891e-01  4.42307860e-01  4.42750535e-01
  4.45488471e-01  4.49650981e-01  4.50355030e-01  4.58540321e-01
  4.58635815e-01  4.61034217e-01  4.63939916e-01  4.69042946e-01
  4.70028665e-01  4.72229868e-01  4.73210183e-01  4.76506203e-01
  4.77770440e-01  4.79385953e-01  4.83588484e-01  4.84559564e-01
  4.84652707e-01  4.88825798e-01  4.90448630e-01  4.93676633e-01
  4.94868154e-01  4.95815136e-01  4.99378892e-01  4.99614225e-01
  5.00050258e-01  5.03505363e-01  5.05669413e-01  5.08944348e-01
  5.11917556e-01  5.14244163e-01  5.16388771e-01  5.18425735e-01
  5.19864120e-01  5.21610288e-01  5.23386408e-01  5.27044931e-01
  5.29109570e-01  5.29652487e-01  5.32743174e-01  5.33598110e-01
  5.35563854e-01  5.39384818e-01  5.41900391e-01  5.42821372e-01
  5.46675776e-01  5.49168140e-01  5.50610721e-01  5.52586888e-01
  5.54710495e-01  5.56247643e-01  5.57823255e-01  5.62586787e-01
  5.65121356e-01  5.66651237e-01  5.70248802e-01  5.72278789e-01
  5.72969805e-01  5.76120926e-01  5.78536862e-01  5.79680140e-01
  5.80484840e-01  5.83487284e-01  5.84537775e-01  5.87335057e-01
  5.92420834e-01  5.95964726e-01  5.96263612e-01  6.00076925e-01
  6.01903678e-01  6.02950735e-01  6.06395432e-01  6.07228456e-01
  6.08270751e-01  6.11870068e-01  6.12436963e-01  6.18149678e-01
  6.20153550e-01  6.21719904e-01  6.27839538e-01  6.29078451e-01
  6.30695676e-01  6.35401106e-01  6.37285834e-01  6.40636161e-01
  6.42944373e-01  6.44487976e-01  6.46751891e-01  6.50121318e-01
  6.52493803e-01  6.55417712e-01  6.58992522e-01  6.60203151e-01
  6.61870723e-01  6.63804455e-01  6.66725557e-01  6.68427431e-01
  6.77097806e-01  6.78321399e-01  6.80285745e-01  6.84500285e-01
  6.87226447e-01  6.87649843e-01  6.94007931e-01  6.97173676e-01
  7.01256456e-01  7.03774173e-01  7.04120182e-01  7.09142888e-01
  7.11861779e-01  7.14541048e-01  7.16321339e-01  7.19468508e-01
  7.21005695e-01  7.28114773e-01  7.30154041e-01  7.33369744e-01
  7.38645008e-01  7.40243972e-01  7.43734634e-01  7.45807021e-01
  7.49019692e-01  7.50676350e-01  7.52916946e-01  7.55461492e-01
  7.61645454e-01  7.65167553e-01  7.68739068e-01  7.71148238e-01
  7.75651919e-01  7.78313294e-01  7.80442896e-01  7.83452234e-01
  7.87154691e-01  7.91976547e-01  7.93954016e-01  7.97707383e-01
  7.99007755e-01  8.01510968e-01  8.07145179e-01  8.07786563e-01
  8.14020765e-01  8.16278710e-01  8.17179338e-01  8.25086876e-01
  8.31025547e-01  8.31971974e-01  8.36764992e-01  8.38738774e-01
  8.40925428e-01  8.44054670e-01  8.49067217e-01  8.55602302e-01
  8.55897081e-01  8.61899268e-01  8.64935745e-01  8.69924787e-01
  8.74856366e-01  8.77128919e-01  8.82098083e-01  8.89879109e-01
  8.90718810e-01  8.92852354e-01  8.94256889e-01  8.97231619e-01
  9.01539385e-01  9.03380342e-01  9.07792858e-01  9.09979002e-01
  9.12683386e-01  9.19611516e-01  9.21572256e-01  9.25487979e-01
  9.29256956e-01  9.36047338e-01  9.41161376e-01  9.44122634e-01
  9.49123910e-01  9.53886942e-01  9.56589190e-01  9.62046341e-01
  9.64139600e-01  9.66274140e-01  9.68867028e-01  9.76335015e-01
  9.77187148e-01  9.80040432e-01  9.82748336e-01  9.86298489e-01
  9.90020602e-01  9.95193931e-01  9.98092433e-01  1.00025982e+00
  1.00682032e+00  1.00864909e+00  1.01311464e+00  1.01535835e+00
  1.02203729e+00  1.02503421e+00  1.02711164e+00  1.03191639e+00
  1.03579567e+00  1.03965041e+00  1.04810616e+00  1.04840329e+00
  1.05056719e+00  1.05354139e+00  1.05648682e+00  1.06521417e+00
  1.06856759e+00  1.07081073e+00  1.07407883e+00  1.07936194e+00
  1.08087681e+00  1.08261273e+00  1.08519898e+00  1.09064814e+00
  1.09489862e+00  1.09816927e+00  1.10382226e+00  1.10507190e+00
  1.10775631e+00  1.10911956e+00  1.11167645e+00  1.11733152e+00
  1.12293370e+00  1.12634478e+00  1.12903001e+00  1.13445845e+00
  1.13864705e+00  1.14421830e+00  1.14629258e+00  1.14864514e+00
  1.15523475e+00  1.15941634e+00  1.16747508e+00  1.17165131e+00
  1.17488767e+00  1.17905171e+00  1.18074917e+00  1.18657755e+00
  1.19019883e+00  1.19120640e+00  1.19909209e+00  1.19966169e+00
  1.20264007e+00  1.20665184e+00  1.20910824e+00  1.21258773e+00
  1.21809069e+00  1.22333878e+00  1.22650883e+00  1.22921634e+00
  1.23534674e+00  1.23766712e+00  1.24293945e+00  1.24692642e+00
  1.25118010e+00  1.25638189e+00  1.26085933e+00  1.26420988e+00
  1.26718134e+00  1.27279437e+00  1.27506271e+00  1.27827624e+00
  1.27883719e+00  1.28689500e+00  1.29123939e+00  1.29452623e+00
  1.29526054e+00  1.29757311e+00  1.30240542e+00  1.30859028e+00
  1.31311427e+00  1.31907885e+00  1.32256417e+00  1.32390438e+00
  1.32853973e+00  1.33287789e+00  1.33476184e+00  1.34234165e+00
  1.34412130e+00  1.35126611e+00  1.35786758e+00  1.36231784e+00
  1.36497747e+00  1.36655201e+00  1.37361354e+00  1.37652596e+00
  1.37845937e+00  1.38211940e+00  1.38732259e+00  1.39554820e+00
  1.39906551e+00  1.40294088e+00  1.40921755e+00  1.41216112e+00
  1.41698007e+00  1.41908266e+00  1.42665326e+00  1.42694050e+00
  1.43132416e+00  1.43439900e+00  1.44327040e+00  1.44641700e+00
  1.44827724e+00  1.44928770e+00  1.45195967e+00  1.45583381e+00
  1.46304695e+00  1.46910387e+00  1.47380774e+00  1.48073670e+00
  1.48249716e+00  1.48790680e+00  1.49252290e+00  1.49544153e+00
  1.50200037e+00  1.50722561e+00  1.51074928e+00  1.51685443e+00
  1.51714855e+00  1.52481006e+00  1.52837644e+00  1.53074559e+00
  1.53336522e+00  1.53902593e+00  1.54820112e+00  1.55586998e+00
  1.55964026e+00  1.56127022e+00  1.56334380e+00  1.56774332e+00
  1.57420031e+00  1.57752869e+00  1.58098759e+00  1.58609117e+00
  1.59103053e+00  1.59825550e+00  1.60050490e+00  1.60585824e+00
  1.61066084e+00  1.61605194e+00  1.61913234e+00  1.62256243e+00
  1.63055170e+00  1.63291318e+00  1.63804397e+00  1.64236081e+00
  1.64301368e+00  1.64740472e+00  1.64982463e+00  1.65160341e+00
  1.65289852e+00  1.65857227e+00  1.66085660e+00  1.66620915e+00
  1.66986938e+00  1.67194901e+00  1.67352989e+00  1.67614016e+00
  1.68073169e+00  1.68254341e+00  1.68557384e+00  1.68910274e+00
  1.69339827e+00  1.69753326e+00  1.69955691e+00  1.70467282e+00
  1.70749880e+00  1.71079636e+00  1.71270055e+00  1.71442394e+00
  1.72072111e+00  1.72186099e+00  1.72457278e+00  1.72645063e+00
  1.73438857e+00  1.73696494e+00  1.73961430e+00  1.74694332e+00
  1.74971932e+00  1.75305183e+00  1.75784065e+00  1.76122476e+00
  1.76337565e+00  1.76894162e+00  1.76989138e+00  1.77230553e+00
  1.77725180e+00  1.78192067e+00  1.78565495e+00  1.79067338e+00
  1.79396333e+00  1.79499422e+00  1.79922132e+00  1.80440135e+00
  1.80483276e+00  1.80977937e+00  1.81372145e+00  1.81428065e+00
  1.81917015e+00  1.82247805e+00  1.82641286e+00  1.83055226e+00
  1.83319830e+00  1.83698167e+00  1.84145013e+00  1.84408776e+00
  1.85232246e+00  1.85494006e+00  1.85571616e+00  1.86531490e+00
  1.86625967e+00  1.86897888e+00  1.87166383e+00  1.87725425e+00
  1.88363557e+00  1.89061266e+00  1.89383784e+00  1.89611099e+00
  1.90346519e+00  1.90743384e+00  1.91430597e+00  1.91922964e+00
  1.92270177e+00  1.92751548e+00  1.93161764e+00  1.93556607e+00
  1.93828894e+00  1.94270653e+00  1.94733153e+00  1.94862970e+00
  1.95441828e+00  1.95912823e+00  1.96329213e+00  1.96855399e+00
  1.96980466e+00  1.97654558e+00  1.98352564e+00  1.98545183e+00
  1.98741384e+00  1.99119172e+00  1.99436369e+00  1.99578324e+00
  2.00348455e+00  2.00396830e+00  2.00566135e+00  2.01007861e+00
  2.02111434e+00  2.02301470e+00  2.02792516e+00  2.03148760e+00
  2.03676227e+00  2.03959873e+00  2.04319122e+00  2.04996699e+00
  2.05575727e+00  2.05748085e+00  2.06567051e+00  2.06758519e+00
  2.06938104e+00  2.07458456e+00  2.07587395e+00  2.08152653e+00
  2.08282830e+00  2.08633956e+00  2.08928064e+00  2.09725289e+00
  2.10104815e+00  2.10674708e+00  2.10954146e+00  2.11669014e+00
  2.11977371e+00  2.12165308e+00  2.12539630e+00  2.12979083e+00
  2.13353023e+00  2.13885980e+00  2.14303712e+00  2.14720581e+00
  2.14914221e+00  2.15321286e+00  2.15498786e+00  2.16436103e+00
  2.16550206e+00  2.16963935e+00  2.17460982e+00  2.17857326e+00
  2.18482594e+00  2.18830825e+00  2.19288810e+00  2.19505410e+00
  2.20081282e+00  2.21047500e+00  2.21163029e+00  2.21798072e+00
  2.21986653e+00  2.22271682e+00  2.22620937e+00  2.23390621e+00
  2.23601732e+00  2.24079229e+00  2.24945083e+00  2.25060115e+00
  2.25376999e+00  2.25473113e+00  2.26479993e+00  2.26508252e+00
  2.27323490e+00  2.27763302e+00  2.28621962e+00  2.28882245e+00
  2.29020574e+00  2.29497392e+00  2.29570928e+00  2.30144178e+00
  2.30560692e+00  2.30900988e+00  2.31080022e+00  2.31425819e+00
  2.31729479e+00  2.32267267e+00  2.33096350e+00  2.33652177e+00
  2.33791020e+00  2.34111972e+00  2.34596913e+00  2.34954181e+00
  2.35359023e+00  2.36217380e+00  2.36515468e+00  2.36874537e+00
  2.37518940e+00  2.37948502e+00  2.38088014e+00  2.38546038e+00
  2.38913663e+00  2.39096722e+00  2.39552662e+00  2.40466751e+00
  2.40528740e+00  2.40849687e+00  2.41241154e+00  2.41804774e+00
  2.42016512e+00  2.42555302e+00  2.42851254e+00  2.43467286e+00
  2.43621141e+00  2.43830755e+00  2.44547353e+00  2.45052059e+00
  2.45366280e+00  2.46079362e+00  2.46271781e+00  2.46896448e+00
  2.47096713e+00  2.47470766e+00  2.47616288e+00  2.48000726e+00
  2.48485828e+00  2.49050123e+00  2.49334204e+00  2.49483474e+00
  2.50062593e+00  2.50545243e+00  2.51036652e+00  2.51412933e+00
  2.52070708e+00  2.52095496e+00  2.52623407e+00  2.53055101e+00
  2.53316579e+00  2.53640352e+00  2.54061960e+00  2.54672719e+00
  2.55039191e+00  2.55141266e+00  2.55439423e+00  2.55640431e+00
  2.56051219e+00  2.56424478e+00  2.56871649e+00  2.56958007e+00
  2.57534092e+00  2.58136446e+00  2.58805542e+00  2.59107707e+00
  2.60163707e+00  2.60257418e+00  2.60664503e+00  2.61201940e+00
  2.61892889e+00  2.62288351e+00  2.62483752e+00  2.63313351e+00
  2.63431422e+00  2.63568600e+00  2.64104006e+00  2.64261787e+00
  2.64456327e+00  2.65011582e+00  2.65512626e+00  2.65783186e+00
  2.66110454e+00  2.66245819e+00  2.67137600e+00  2.67514393e+00
  2.67952209e+00  2.68166282e+00  2.69017952e+00  2.69172470e+00
  2.69350327e+00  2.69904339e+00  2.70033653e+00  2.70278504e+00
  2.70615274e+00  2.71291311e+00  2.71456791e+00  2.71734759e+00
  2.72245255e+00  2.72376266e+00  2.72858078e+00  2.73079654e+00
  2.73707900e+00  2.74239612e+00  2.74434915e+00  2.74755500e+00
  2.75078054e+00  2.75289808e+00  2.75526417e+00  2.75895069e+00
  2.76306065e+00  2.77066578e+00  2.77805664e+00  2.78213384e+00
  2.78366490e+00  2.78489644e+00  2.78953107e+00  2.79348867e+00
  2.79583786e+00  2.80039286e+00  2.80165226e+00  2.80368063e+00
  2.81715549e+00  2.81841032e+00  2.82027545e+00  2.82724677e+00
  2.82863396e+00  2.83273654e+00  2.83687315e+00  2.84055712e+00
  2.84475037e+00  2.84642031e+00  2.85350617e+00  2.85538989e+00
  2.86203630e+00  2.86387626e+00  2.87039703e+00  2.87504903e+00
  2.88149815e+00  2.88343551e+00  2.88974174e+00  2.88995529e+00
  2.89839077e+00  2.89929949e+00  2.90291130e+00  2.90832356e+00
  2.90888699e+00  2.91277501e+00  2.91586092e+00  2.92080484e+00
  2.92407636e+00  2.93059561e+00  2.93388355e+00  2.93657642e+00
  2.94055521e+00  2.94279578e+00  2.94765607e+00  2.94997003e+00
  2.95236797e+00  2.95816913e+00  2.95910048e+00  2.96393523e+00
  2.96998228e+00  2.97468301e+00  2.97890917e+00  2.98237416e+00
  2.98555289e+00  2.98889107e+00  2.99625434e+00  2.99997201e+00
  3.00283186e+00  3.00416215e+00  3.01382137e+00  3.02095531e+00
  3.03248181e+00  3.03495248e+00  3.04042706e+00  3.04417816e+00
  3.04700485e+00  3.04968121e+00  3.05559644e+00  3.05857076e+00
  3.06209815e+00  3.06325935e+00  3.06928984e+00  3.07573901e+00
  3.07806521e+00  3.08333127e+00  3.08510448e+00  3.08955668e+00
  3.09395100e+00  3.09834355e+00  3.10074189e+00  3.10440431e+00
  3.10685486e+00  3.11067777e+00  3.11623484e+00  3.11706746e+00
  3.12020510e+00  3.12293162e+00  3.12929695e+00  3.13618373e+00
  3.13873198e+00  3.14208058e+00  3.14478820e+00  3.14575190e+00
  3.14970323e+00  3.15346220e+00  3.15714000e+00  3.15961260e+00
  3.16241871e+00  3.16905318e+00  3.16985217e+00  3.17497007e+00
  3.17677681e+00  3.18088238e+00  3.18308179e+00  3.18597206e+00
  3.19172117e+00  3.19552991e+00  3.19961190e+00  3.20202784e+00
  3.20584918e+00  3.20854502e+00  3.21184877e+00  3.21755509e+00
  3.21912656e+00  3.22056904e+00  3.22474528e+00  3.23026288e+00
  3.23149854e+00  3.23299930e+00  3.23760858e+00  3.24076426e+00
  3.24411350e+00  3.24765164e+00  3.25049034e+00  3.25266610e+00
  3.25750167e+00  3.25853125e+00  3.26282706e+00  3.26645012e+00
  3.27016809e+00  3.27080912e+00  3.27588868e+00  3.28160093e+00
  3.28410257e+00  3.28767782e+00  3.29372610e+00  3.29833770e+00
  3.29893795e+00  3.30338170e+00  3.30629863e+00  3.30833943e+00
  3.31301430e+00  3.31359100e+00  3.31731712e+00  3.32643412e+00
  3.32872015e+00  3.33144372e+00  3.33606800e+00  3.33839576e+00
  3.34077764e+00  3.34305494e+00  3.34497981e+00  3.35080243e+00
  3.35357003e+00  3.35598463e+00  3.35787235e+00  3.35926432e+00
  3.36499848e+00  3.36623301e+00  3.37056136e+00  3.37343780e+00
  3.37919177e+00  3.38022114e+00  3.38048636e+00  3.38468377e+00
  3.38650709e+00  3.39358868e+00  3.39600436e+00  3.39762365e+00
  3.40065220e+00  3.40194447e+00  3.40617976e+00  3.40670350e+00
  3.40983755e+00  3.41426659e+00  3.41615418e+00  3.42172514e+00
  3.42378573e+00  3.42721626e+00  3.43163638e+00  3.43448958e+00
  3.43751817e+00  3.43884626e+00  3.44516271e+00  3.44894045e+00
  3.45123138e+00  3.45539599e+00  3.45833257e+00  3.46039339e+00
  3.46443650e+00  3.46604978e+00  3.46853926e+00  3.47152436e+00
  3.47332677e+00  3.47810917e+00  3.48024362e+00  3.48508537e+00
  3.48621936e+00  3.48954420e+00  3.49476453e+00  3.49783710e+00
  3.50029277e+00  3.50331796e+00  3.50649502e+00  3.50893067e+00
  3.51307021e+00  3.51616366e+00  3.52098851e+00  3.52247919e+00
  3.52642035e+00  3.52920519e+00  3.53276209e+00  3.53484552e+00
  3.54094201e+00  3.54517456e+00  3.54779738e+00  3.55239602e+00
  3.55545621e+00  3.55740438e+00  3.56186033e+00  3.56582826e+00
  3.56995142e+00  3.57427607e+00  3.57729567e+00  3.57785255e+00
  3.58336590e+00  3.58436311e+00  3.58965075e+00  3.59014661e+00
  3.59558181e+00  3.59668445e+00  3.60808141e+00  3.60977810e+00
  3.61671165e+00  3.62012735e+00  3.62322031e+00  3.62564082e+00
  3.62868549e+00  3.63725662e+00  3.64101903e+00  3.64344548e+00
  3.64756092e+00  3.65413400e+00  3.65622146e+00  3.65814319e+00
  3.66190077e+00  3.67103862e+00  3.67662830e+00  3.68004914e+00
  3.68396964e+00  3.68674024e+00  3.69282654e+00  3.69523051e+00
  3.69913620e+00  3.70468574e+00  3.70965867e+00  3.71412953e+00
  3.72123719e+00  3.72308337e+00  3.72565586e+00  3.72800129e+00
  3.73618150e+00  3.74069668e+00  3.74235290e+00  3.74536252e+00
  3.75612421e+00  3.76425932e+00  3.76525056e+00  3.76933458e+00
  3.77450315e+00  3.78208049e+00  3.78619476e+00  3.78967235e+00
  3.79444456e+00  3.80036464e+00  3.80256932e+00  3.80909824e+00
  3.81424603e+00  3.81859393e+00  3.82410828e+00  3.82739643e+00
  3.83066653e+00  3.83307215e+00  3.83954149e+00  3.84294978e+00
  3.84885512e+00  3.85008801e+00  3.85272990e+00  3.85771119e+00
  3.86000380e+00  3.86711660e+00  3.87342012e+00  3.87913362e+00
  3.88183246e+00  3.88861798e+00  3.89201087e+00  3.89842825e+00
  3.90288910e+00  3.90943115e+00  3.91105324e+00  3.91146469e+00
  3.92144086e+00  3.92559787e+00  3.93302305e+00  3.93668548e+00
  3.94312041e+00  3.94471478e+00  3.95108309e+00  3.95747051e+00
  3.96328539e+00  3.97075967e+00  3.97438486e+00  3.98124809e+00
  3.98296738e+00  3.98801482e+00  3.99155785e+00  3.99520246e+00
  3.99993467e+00  4.00406738e+00  4.01279964e+00  4.01605297e+00
  4.02242534e+00  4.03203214e+00  4.03673681e+00  4.04308341e+00
  4.04422588e+00  4.05112985e+00  4.06180853e+00  4.06553622e+00
  4.06934987e+00  4.07277199e+00  4.07443077e+00  4.07882591e+00
  4.08539161e+00  4.08839343e+00  4.09019333e+00  4.10173202e+00
  4.10931449e+00  4.11266715e+00  4.12144136e+00  4.12770712e+00
  4.12865037e+00  4.13493233e+00  4.13761515e+00  4.15012618e+00
  4.15748679e+00  4.16438792e+00  4.16967370e+00  4.17600356e+00
  4.18150761e+00  4.18679838e+00  4.19234806e+00  4.20021650e+00
  4.20825180e+00  4.21337775e+00  4.22153027e+00  4.22387655e+00
  4.23214095e+00  4.23395367e+00  4.23745124e+00  4.24699055e+00
  4.25466216e+00  4.25723486e+00  4.27005036e+00  4.27212722e+00
  4.28308535e+00  4.28900502e+00  4.29349614e+00  4.29785863e+00
  4.30476111e+00  4.31104719e+00  4.31668760e+00  4.32916413e+00
  4.33380648e+00  4.33761974e+00  4.34140877e+00  4.35860364e+00
  4.36598529e+00  4.36731014e+00  4.37996930e+00  4.38265202e+00
  4.38846754e+00  4.39525590e+00  4.40041173e+00  4.41097710e+00
  4.41958422e+00  4.42606022e+00  4.44409672e+00  4.44684247e+00
  4.45056077e+00  4.45182400e+00  4.45448216e+00  4.45975409e+00
  4.47014934e+00  4.47273716e+00  4.47573584e+00  4.48245669e+00
  4.48868324e+00  4.49147337e+00  4.49701109e+00  4.50231213e+00
  4.50591102e+00  4.51727283e+00  4.51978065e+00  4.53316815e+00
  4.53760095e+00  4.54395657e+00  4.55016493e+00  4.55522237e+00
  4.56144613e+00  4.57036646e+00  4.57561480e+00  4.58225560e+00
  4.59177873e+00  4.60255348e+00  4.60866762e+00  4.61199253e+00
  4.62290948e+00  4.63300799e+00  4.63752491e+00  4.64014988e+00
  4.65033509e+00  4.65743556e+00  4.66092988e+00  4.66655076e+00
  4.67449740e+00  4.67882658e+00  4.68793362e+00  4.70262297e+00
  4.70790118e+00  4.71107055e+00  4.71765635e+00  4.72792697e+00
  4.73601086e+00  4.74309180e+00  4.75355520e+00  4.77168312e+00
  4.77451159e+00  4.78299876e+00  4.80025299e+00  4.80258807e+00
  4.82327991e+00  4.83243483e+00  4.83892499e+00  4.85272439e+00
  4.86379414e+00  4.86962962e+00  4.87903793e+00  4.88650625e+00
  4.89066737e+00  4.89557806e+00  4.90573104e+00  4.91713311e+00
  4.92167048e+00  4.92564455e+00  4.93596166e+00  4.94136408e+00
  4.95056811e+00  4.95255112e+00  4.95766656e+00  4.96226966e+00
  4.97682431e+00  4.97729800e+00  4.99551186e+00  5.00781517e+00
  5.01618898e+00  5.02102310e+00  5.03409313e+00  5.04184013e+00
  5.05438355e+00  5.06491071e+00  5.08047520e+00  5.08783921e+00
  5.09580383e+00  5.11007974e+00  5.11580609e+00  5.13907843e+00
  5.14332112e+00  5.15061644e+00  5.16029594e+00  5.17556030e+00
  5.18756711e+00  5.19685237e+00  5.20288532e+00  5.21448690e+00
  5.22169346e+00  5.22638117e+00  5.24018136e+00  5.24537990e+00
  5.25288782e+00  5.25834894e+00  5.26068697e+00  5.26363755e+00
  5.26618142e+00  5.26981300e+00  5.28009304e+00  5.28300030e+00
  5.29725829e+00  5.31166054e+00  5.31367294e+00  5.32094111e+00
  5.33371112e+00  5.33939349e+00  5.34269958e+00  5.34821169e+00
  5.35752911e+00  5.37264046e+00  5.38071288e+00  5.38542531e+00
  5.39357285e+00  5.40249081e+00  5.40677591e+00  5.41480167e+00
  5.41952062e+00  5.42743514e+00  5.43840845e+00  5.44042461e+00
  5.45174019e+00  5.45621126e+00  5.46049880e+00  5.46820416e+00
  5.48519970e+00  5.52411144e+00  5.53270208e+00  5.54801089e+00
  5.54969116e+00  5.56776730e+00  5.57332534e+00  5.58924812e+00
  5.60293039e+00  5.61857886e+00  5.65808804e+00  5.66644148e+00
  5.67902400e+00  5.68246479e+00  5.69852087e+00  5.69970584e+00
  5.74201229e+00  5.74515177e+00  5.76503587e+00  5.77764534e+00
  5.79882897e+00  5.81310847e+00  5.82103741e+00  5.82368823e+00
  5.85612788e+00  5.86327332e+00  5.86778362e+00  5.88166728e+00
  5.92588994e+00  5.93858541e+00  5.94617833e+00  5.99567143e+00
  6.00564153e+00  6.02925457e+00  6.03092408e+00  6.04927881e+00
  6.05591201e+00  6.11150813e+00  6.14229564e+00  6.17189735e+00
  6.18356885e+00  6.19389585e+00  6.21020050e+00  6.27013203e+00
  6.27322997e+00  6.29773624e+00  6.31506119e+00  6.33616941e+00
  6.39968314e+00  6.40739326e+00  6.45293040e+00  6.48316122e+00
  6.50750408e+00  6.51597795e+00  6.52191230e+00  6.52585611e+00
  6.55418775e+00  6.56777187e+00  6.61226320e+00  6.68725703e+00
  6.69610538e+00  6.72049277e+00  6.73448735e+00  6.76896865e+00
  6.77450999e+00  6.82873343e+00  6.83019324e+00  6.83868490e+00
  6.89612025e+00  6.90304656e+00  6.91727685e+00  6.94449955e+00
  6.97187591e+00  6.97631798e+00  6.98772230e+00  7.03492150e+00
  7.15733706e+00  7.17271814e+00  7.18613787e+00  7.21107072e+00
  7.21456877e+00  7.23245562e+00  7.23308670e+00  7.24266161e+00
  7.35237193e+00  7.40261940e+00  2.23711584e+01  2.23744947e+01
  2.24644009e+01  2.24675621e+01  2.24789078e+01  2.25375942e+01
  2.25555025e+01  2.25705425e+01  2.25960087e+01  2.26092160e+01
  2.26501138e+01  2.26977298e+01  2.27199073e+01  2.27300358e+01
  2.27596545e+01  2.27759608e+01  2.27938360e+01  2.28511080e+01
  2.28700429e+01  2.28845079e+01  2.30613834e+01  2.31193759e+01
  2.32410752e+01  2.33149035e+01  2.33224638e+01  2.33724292e+01
  2.33940196e+01  2.34152797e+01  2.34586537e+01  2.34620487e+01
  2.35374163e+01  2.36391750e+01  2.37858611e+01  3.25550823e+01
  3.25943267e+01  3.26964223e+01  3.27361737e+01  4.38220738e+01
  4.38879129e+01  4.39879211e+01  4.40119600e+01  4.40807369e+01
  4.41120650e+01]
nelec by numeric integration = 314.0014787298769
    CPU time for vxc    384.27 sec, wall time     19.96 sec
    CPU time for df vj and vk   2685.06 sec, wall time    151.49 sec
    CPU time for df vj and vk   2020.95 sec, wall time    102.71 sec
E1 = -13530.130199766403  Ecoul = 6388.869578251267  Exc = -273.06961069230863
cycle= 2 E= -1952.24384921328  delta_E= -5.52e-08  |g|= 0.000194  |ddm|= 0.00222
    CPU time for cycle= 2   5103.32 sec, wall time    275.68 sec
  HOMO = -0.272586077839053  LUMO = 0.00668760420460205
  mo_energy =
[-1.92787412e+01 -1.92505075e+01 -1.92205169e+01 -1.92022724e+01
 -1.91601552e+01 -1.91575161e+01 -1.44513905e+01 -1.44344885e+01
 -1.44223687e+01 -1.44159500e+01 -1.04311593e+01 -1.04101295e+01
 -1.03571020e+01 -1.03379415e+01 -1.03269222e+01 -1.03205925e+01
 -1.03125980e+01 -1.03015959e+01 -1.03009327e+01 -1.02974486e+01
 -1.02970008e+01 -1.02939721e+01 -1.02936065e+01 -1.02889063e+01
 -1.02873672e+01 -1.02853111e+01 -1.02845089e+01 -1.02832002e+01
 -1.02817989e+01 -1.02817032e+01 -1.02784604e+01 -1.02780832e+01
 -1.02708498e+01 -1.02672213e+01 -1.02649078e+01 -1.02573240e+01
 -1.02516363e+01 -1.02510301e+01 -1.02468340e+01 -1.02466102e+01
 -1.02455451e+01 -1.02429106e+01 -1.02407840e+01 -1.26947483e+00
 -1.24609649e+00 -1.17372609e+00 -1.15784576e+00 -1.15709334e+00
 -1.14126631e+00 -1.11803571e+00 -1.10317218e+00 -1.09644937e+00
 -1.07546205e+00 -9.76523867e-01 -9.71706255e-01 -9.63244729e-01
 -9.38206905e-01 -9.34941605e-01 -9.28544142e-01 -9.25155849e-01
 -9.11371037e-01 -9.03917872e-01 -8.88224199e-01 -8.75046534e-01
 -8.56316519e-01 -8.43930106e-01 -8.35943102e-01 -8.27165765e-01
 -8.17366131e-01 -8.09899489e-01 -7.96903033e-01 -7.86716191e-01
 -7.67494117e-01 -7.57818083e-01 -7.55115180e-01 -7.40520751e-01
 -7.38317742e-01 -7.22571751e-01 -7.11750117e-01 -6.98100407e-01
 -6.82444902e-01 -6.76245401e-01 -6.68314303e-01 -6.63945850e-01
 -6.58671023e-01 -6.53372183e-01 -6.49338731e-01 -6.47422728e-01
 -6.36049409e-01 -6.30114673e-01 -6.25568078e-01 -6.13998489e-01
 -6.13210787e-01 -6.04914238e-01 -5.98393163e-01 -5.89344767e-01
 -5.84982286e-01 -5.80416342e-01 -5.76858732e-01 -5.71610928e-01
 -5.66123020e-01 -5.62667938e-01 -5.58030208e-01 -5.56536993e-01
 -5.52771308e-01 -5.48520107e-01 -5.46643108e-01 -5.43477802e-01
 -5.36701160e-01 -5.36277045e-01 -5.30887454e-01 -5.29871748e-01
 -5.27657100e-01 -5.25773310e-01 -5.21052355e-01 -5.20370286e-01
 -5.16837398e-01 -5.14994236e-01 -5.11760706e-01 -5.10692846e-01
 -5.04389265e-01 -5.02917344e-01 -4.97784969e-01 -4.97419794e-01
 -4.94707720e-01 -4.90620326e-01 -4.88669392e-01 -4.81497061e-01
 -4.80880063e-01 -4.77657850e-01 -4.74614064e-01 -4.70116299e-01
 -4.68256821e-01 -4.67269220e-01 -4.64623303e-01 -4.61924959e-01
 -4.59824352e-01 -4.58102431e-01 -4.54269947e-01 -4.49252647e-01
 -4.42797491e-01 -4.36851584e-01 -4.34939175e-01 -4.33896842e-01
 -4.21897039e-01 -4.21464148e-01 -4.19011247e-01 -3.98322183e-01
 -3.62612787e-01 -3.58730925e-01 -3.56079710e-01 -3.40740684e-01
 -3.38245359e-01 -3.32790785e-01 -3.21064799e-01 -2.89393301e-01
 -2.72586078e-01  6.68760420e-03  3.19658288e-02  5.88094136e-02
  6.73678662e-02  7.55164672e-02  8.36623602e-02  9.11806379e-02
  9.53328685e-02  1.02295373e-01  1.05328294e-01  1.09426309e-01
  1.15200131e-01  1.17589379e-01  1.21490254e-01  1.23150755e-01
  1.29783881e-01  1.34933154e-01  1.37455740e-01  1.41757691e-01
  1.44674329e-01  1.48140937e-01  1.50384203e-01  1.55093651e-01
  1.59839571e-01  1.60438468e-01  1.65271947e-01  1.66191553e-01
  1.70376170e-01  1.71071911e-01  1.75152727e-01  1.78468619e-01
  1.81193305e-01  1.83332937e-01  1.86638933e-01  1.88907857e-01
  1.94072984e-01  1.95787460e-01  1.98341577e-01  1.98957963e-01
  1.99296296e-01  2.03420864e-01  2.07862370e-01  2.09787980e-01
  2.11829231e-01  2.12591515e-01  2.15893821e-01  2.20977697e-01
  2.22546689e-01  2.25467229e-01  2.28806715e-01  2.31265885e-01
  2.32762887e-01  2.34501078e-01  2.35230770e-01  2.39665571e-01
  2.41563863e-01  2.48059393e-01  2.49020730e-01  2.50088326e-01
  2.52353879e-01  2.56663931e-01  2.59064471e-01  2.61127328e-01
  2.62603538e-01  2.65710623e-01  2.69037662e-01  2.70599714e-01
  2.74990241e-01  2.76406920e-01  2.80663919e-01  2.85638723e-01
  2.87229630e-01  2.90029461e-01  2.94158562e-01  2.95777523e-01
  2.99820212e-01  3.01745682e-01  3.04688706e-01  3.08676109e-01
  3.11449056e-01  3.12783656e-01  3.17366806e-01  3.18197008e-01
  3.18519916e-01  3.23492012e-01  3.28151199e-01  3.29344782e-01
  3.30990515e-01  3.33984697e-01  3.34711418e-01  3.37331465e-01
  3.39415792e-01  3.39522488e-01  3.46342207e-01  3.47471555e-01
  3.51544752e-01  3.54662386e-01  3.55932945e-01  3.58446007e-01
  3.60242951e-01  3.64476624e-01  3.66903443e-01  3.72615066e-01
  3.74534545e-01  3.78792700e-01  3.81833249e-01  3.83345163e-01
  3.84341363e-01  3.89975976e-01  3.90371110e-01  3.91970959e-01
  3.93215192e-01  3.99317006e-01  4.00902348e-01  4.02133007e-01
  4.06006127e-01  4.10812730e-01  4.13641246e-01  4.15528665e-01
  4.17381929e-01  4.20454489e-01  4.22911976e-01  4.25137800e-01
  4.28010297e-01  4.30127715e-01  4.30844181e-01  4.34972864e-01
  4.37595925e-01  4.42111889e-01  4.42307363e-01  4.42750162e-01
  4.45488357e-01  4.49650744e-01  4.50354622e-01  4.58540200e-01
  4.58635317e-01  4.61033360e-01  4.63939506e-01  4.69042608e-01
  4.70028006e-01  4.72229498e-01  4.73210032e-01  4.76505502e-01
  4.77769981e-01  4.79385714e-01  4.83587836e-01  4.84558661e-01
  4.84652274e-01  4.88828150e-01  4.90448702e-01  4.93676087e-01
  4.94867449e-01  4.95814832e-01  4.99378997e-01  4.99612969e-01
  5.00049873e-01  5.03504075e-01  5.05669500e-01  5.08944193e-01
  5.11916795e-01  5.14243710e-01  5.16388213e-01  5.18425596e-01
  5.19863882e-01  5.21610196e-01  5.23386163e-01  5.27045831e-01
  5.29110229e-01  5.29652194e-01  5.32742845e-01  5.33597918e-01
  5.35563128e-01  5.39384896e-01  5.41900019e-01  5.42821359e-01
  5.46675858e-01  5.49168348e-01  5.50610812e-01  5.52586880e-01
  5.54709924e-01  5.56247782e-01  5.57823194e-01  5.62586497e-01
  5.65122231e-01  5.66651942e-01  5.70251616e-01  5.72279263e-01
  5.72969287e-01  5.76120514e-01  5.78536712e-01  5.79682906e-01
  5.80487075e-01  5.83487270e-01  5.84538105e-01  5.87335044e-01
  5.92420067e-01  5.95964664e-01  5.96263812e-01  6.00076388e-01
  6.01903263e-01  6.02951263e-01  6.06396004e-01  6.07227802e-01
  6.08270767e-01  6.11870610e-01  6.12438223e-01  6.18149348e-01
  6.20154280e-01  6.21719750e-01  6.27841025e-01  6.29078008e-01
  6.30695749e-01  6.35400712e-01  6.37285501e-01  6.40635941e-01
  6.42943820e-01  6.44487832e-01  6.46751383e-01  6.50121201e-01
  6.52493358e-01  6.55417597e-01  6.58991621e-01  6.60203489e-01
  6.61870332e-01  6.63803897e-01  6.66724726e-01  6.68426821e-01
  6.77097536e-01  6.78321051e-01  6.80285496e-01  6.84499440e-01
  6.87225946e-01  6.87649138e-01  6.94007096e-01  6.97173191e-01
  7.01255713e-01  7.03773937e-01  7.04119721e-01  7.09142506e-01
  7.11860713e-01  7.14540952e-01  7.16320824e-01  7.19468333e-01
  7.21005457e-01  7.28114144e-01  7.30153668e-01  7.33369309e-01
  7.38644713e-01  7.40243292e-01  7.43734571e-01  7.45806794e-01
  7.49019246e-01  7.50675527e-01  7.52916795e-01  7.55461032e-01
  7.61644767e-01  7.65167262e-01  7.68738531e-01  7.71148059e-01
  7.75651239e-01  7.78313140e-01  7.80441570e-01  7.83451490e-01
  7.87153970e-01  7.91976899e-01  7.93953389e-01  7.97706640e-01
  7.99007761e-01  8.01510492e-01  8.07144573e-01  8.07786452e-01
  8.14021051e-01  8.16279033e-01  8.17179198e-01  8.25086325e-01
  8.31024976e-01  8.31971590e-01  8.36764358e-01  8.38738344e-01
  8.40924934e-01  8.44053428e-01  8.49066580e-01  8.55601794e-01
  8.55896412e-01  8.61898856e-01  8.64934924e-01  8.69924165e-01
  8.74855905e-01  8.77128448e-01  8.82097475e-01  8.89878561e-01
  8.90718258e-01  8.92851537e-01  8.94256130e-01  8.97230977e-01
  9.01538318e-01  9.03379685e-01  9.07791854e-01  9.09978664e-01
  9.12682058e-01  9.19611154e-01  9.21571671e-01  9.25487343e-01
  9.29256392e-01  9.36046746e-01  9.41161166e-01  9.44122580e-01
  9.49123122e-01  9.53886177e-01  9.56588833e-01  9.62045798e-01
  9.64138925e-01  9.66272634e-01  9.68865899e-01  9.76334226e-01
  9.77186114e-01  9.80039335e-01  9.82747731e-01  9.86297468e-01
  9.90019868e-01  9.95193551e-01  9.98091666e-01  1.00025982e+00
  1.00682068e+00  1.00864863e+00  1.01311400e+00  1.01535885e+00
  1.02203917e+00  1.02503550e+00  1.02711102e+00  1.03191675e+00
  1.03579457e+00  1.03964964e+00  1.04810601e+00  1.04840299e+00
  1.05056648e+00  1.05354100e+00  1.05648614e+00  1.06521338e+00
[...]
  4.25466153e+00  4.25723448e+00  4.27004988e+00  4.27212659e+00
  4.28308454e+00  4.28900468e+00  4.29349589e+00  4.29785821e+00
  4.30476075e+00  4.31104617e+00  4.31668734e+00  4.32916388e+00
  4.33380628e+00  4.33761885e+00  4.34140831e+00  4.35860331e+00
  4.36598441e+00  4.36730973e+00  4.37996829e+00  4.38265175e+00
  4.38846735e+00  4.39525527e+00  4.40041132e+00  4.41097648e+00
  4.41958358e+00  4.42605994e+00  4.44409587e+00  4.44684193e+00
  4.45056010e+00  4.45182317e+00  4.45448175e+00  4.45975357e+00
  4.47014895e+00  4.47273653e+00  4.47573546e+00  4.48245592e+00
  4.48868272e+00  4.49147326e+00  4.49701076e+00  4.50231203e+00
  4.50591066e+00  4.51727246e+00  4.51978046e+00  4.53316793e+00
  4.53760012e+00  4.54395722e+00  4.55016585e+00  4.55522280e+00
  4.56144628e+00  4.57036693e+00  4.57561796e+00  4.58225574e+00
  4.59177808e+00  4.60255309e+00  4.60866738e+00  4.61199230e+00
  4.62291145e+00  4.63300794e+00  4.63752615e+00  4.64015046e+00
  4.65033474e+00  4.65743528e+00  4.66092973e+00  4.66655106e+00
  4.67449692e+00  4.67882620e+00  4.68793346e+00  4.70262281e+00
  4.70790205e+00  4.71107036e+00  4.71765682e+00  4.72792674e+00
  4.73601040e+00  4.74309121e+00  4.75355466e+00  4.77168235e+00
  4.77451142e+00  4.78299807e+00  4.80025247e+00  4.80258778e+00
  4.82327888e+00  4.83243417e+00  4.83892463e+00  4.85272419e+00
  4.86379384e+00  4.86962866e+00  4.87903764e+00  4.88650527e+00
  4.89066674e+00  4.89557731e+00  4.90573057e+00  4.91713248e+00
  4.92167031e+00  4.92564427e+00  4.93596129e+00  4.94136370e+00
  4.95056759e+00  4.95255075e+00  4.95766587e+00  4.96226886e+00
  4.97682419e+00  4.97729768e+00  4.99551158e+00  5.00781490e+00
  5.01618881e+00  5.02102199e+00  5.03409271e+00  5.04183965e+00
  5.05438335e+00  5.06491050e+00  5.08047426e+00  5.08783835e+00
  5.09580358e+00  5.11007946e+00  5.11580559e+00  5.13907809e+00
  5.14332078e+00  5.15061604e+00  5.16029581e+00  5.17555991e+00
  5.18756674e+00  5.19685234e+00  5.20288490e+00  5.21449372e+00
  5.22169844e+00  5.22638198e+00  5.24018127e+00  5.24538021e+00
  5.25288797e+00  5.25834839e+00  5.26068721e+00  5.26363838e+00
  5.26618170e+00  5.26982308e+00  5.28009334e+00  5.28299990e+00
  5.29725804e+00  5.31166026e+00  5.31367298e+00  5.32094069e+00
  5.33371155e+00  5.33939259e+00  5.34269942e+00  5.34821130e+00
  5.35752853e+00  5.37264025e+00  5.38071231e+00  5.38542504e+00
  5.39357240e+00  5.40249035e+00  5.40677575e+00  5.41480137e+00
  5.41952014e+00  5.42743506e+00  5.43840867e+00  5.44045182e+00
  5.45174030e+00  5.45622679e+00  5.46050505e+00  5.46820406e+00
  5.48519957e+00  5.52411122e+00  5.53270165e+00  5.54801040e+00
  5.54969103e+00  5.56776674e+00  5.57334014e+00  5.58924795e+00
  5.60292979e+00  5.61857868e+00  5.65808778e+00  5.66644988e+00
  5.67902408e+00  5.68246395e+00  5.69852053e+00  5.69970573e+00
  5.74201269e+00  5.74515139e+00  5.76503565e+00  5.77764500e+00
  5.79882873e+00  5.81312698e+00  5.82103714e+00  5.82368867e+00
  5.85612751e+00  5.86327266e+00  5.86778366e+00  5.88166695e+00
  5.92589383e+00  5.93860148e+00  5.94620044e+00  5.99567178e+00
  6.00564140e+00  6.02925414e+00  6.03092379e+00  6.04927758e+00
  6.05591190e+00  6.11150770e+00  6.14229533e+00  6.17189712e+00
  6.18356853e+00  6.19389923e+00  6.21019962e+00  6.27013833e+00
  6.27324692e+00  6.29773585e+00  6.31506092e+00  6.33616910e+00
  6.39969766e+00  6.40740784e+00  6.45293058e+00  6.48316305e+00
  6.50750493e+00  6.51597755e+00  6.52191205e+00  6.52587782e+00
  6.55418691e+00  6.56777219e+00  6.61226526e+00  6.68725664e+00
  6.69610652e+00  6.72049365e+00  6.73451661e+00  6.76898416e+00
  6.77453197e+00  6.82873345e+00  6.83019332e+00  6.83870375e+00
  6.89611999e+00  6.90305010e+00  6.91727613e+00  6.94450034e+00
  6.97190931e+00  6.97631760e+00  6.98772194e+00  7.03492039e+00
  7.15734125e+00  7.17271882e+00  7.18613679e+00  7.21107035e+00
  7.21457750e+00  7.23245530e+00  7.23308738e+00  7.24266081e+00
  7.35240349e+00  7.40261821e+00  2.23711581e+01  2.23744947e+01
  2.24644006e+01  2.24675618e+01  2.24789079e+01  2.25375899e+01
  2.25555023e+01  2.25705425e+01  2.25960075e+01  2.26092158e+01
  2.26501099e+01  2.26977297e+01  2.27199071e+01  2.27300349e+01
  2.27596544e+01  2.27759602e+01  2.27938351e+01  2.28511078e+01
  2.28700426e+01  2.28845068e+01  2.30613826e+01  2.31193753e+01
  2.32410529e+01  2.33149035e+01  2.33224637e+01  2.33724285e+01
  2.33940174e+01  2.34152792e+01  2.34586534e+01  2.34620482e+01
  2.35374164e+01  2.36391749e+01  2.37858602e+01  3.25550823e+01
  3.25943263e+01  3.26964220e+01  3.27361736e+01  4.38221541e+01
  4.38879240e+01  4.39879200e+01  4.40119615e+01  4.40807362e+01
  4.41120650e+01]
nelec by numeric integration = 314.001478334672
    CPU time for vxc    374.40 sec, wall time     19.43 sec
    CPU time for df vj and vk   2671.97 sec, wall time    150.33 sec
    CPU time for df vj and vk   2013.84 sec, wall time    102.28 sec
E1 = -13530.130007870326  Ecoul = 6388.8693293485285  Exc = -273.06955369153553
Extra cycle  E= -1952.24384921917  delta_E= -2.73e-12  |g|= 7.57e-06  |ddm|= 1.32e-05
    CPU time for scf_cycle  38959.71 sec, wall time   2245.18 sec
    CPU time for SCF  38959.80 sec, wall time   2245.19 sec
converged SCF energy = -1952.24384921917
SCF Done after 2245.29 seconds
after SCF memory used: 66.28 GB
Converting <class 'pyscf.df.df_jk.density_fit.<locals>.DFHF'> to RHF
Converting <class 'pyscf.df.df_jk.density_fit.<locals>.DFHF'> to RHF
hdiag shape (222312,)
n_occ =  157
n_vir =  1416
max_vir =  373
A_size =  222312
A_reduced_size = 58561
a_x = 0.56
beta = 8.0
alpha = 4.58
Q-Gamma tensors building time = 1.42
after Q matrix memory used: 66.67 GB
TDDFT
|-------- In-house Developed TDDFT Starts ---------|
Residual conv = 1e-05

Number of excited states = 20
Initial guess:   sTDDFT
Preconditioner:  sTDDFT
A matrix size =  222312
setting initial guess
sTDDFT Convergence tol = 1.00e-03
sTDDFT diagonalization Converged
after  12 iterations; 278.0035 seconds
final subspace 222
max_norm =  8.60e-04
MVcost     60.6890s 21.83%
GScost     193.4949s 69.60%
subgencost 16.9846s 6.11%
subcost    0.5304s 0.19%
sTDDFT excitation energy:
[4.17595568 4.2951201  4.4076033  4.70330971 4.90796224 4.98347017
 5.14307536 5.30347484 5.40355666 5.53127934 5.55353961 5.6575411
 5.76451332 5.82136072 5.91153225 5.97325245 6.016487   6.09531434
 6.11738451 6.21789349 6.27219867 6.28695332 6.4463465  6.56978529
 6.58594697 6.64482116 6.65970101 6.71327761]
new_m = 28
initial guess done

iteration 0
beginning of step 0 memory used: 70.95 GB
    CPU time for df vj and vk  77226.79 sec, wall time   4157.94 sec
    CPU time for df vj and vk  57726.13 sec, wall time   2939.74 sec
subspace size: 28
Maximum residual norm:  1.91e-01
unconverged states [0, 1, 2, 3, 4, 5, 6, 7, 8, 9, 10, 11, 12, 13, 14, 15, 16, 17, 18, 19]
sTDDFT_preconditioner conv 0.01
sTDDFT preconditioning Done
after 18 steps; 222.0985 s
final subspace 181
max_norm =  8.45e-03
initial_cost 1.9135s  0.86%
MVcost     49.2324s  22.17%
GScost     136.1752s  61.31%
subgencost 27.6010s  12.43%
subcost    0.5969s  0.27%
m & new_m 28 48

iteration 1
beginning of step 1 memory used: 71.27 GB
    CPU time for df vj and vk  55167.39 sec, wall time   2970.57 sec
    CPU time for df vj and vk  41254.54 sec, wall time   2099.50 sec
subspace size: 48
Maximum residual norm:  4.13e-02
unconverged states [0, 1, 2, 3, 4, 5, 6, 7, 8, 9, 10, 11, 12, 13, 14, 15, 16, 17, 18, 19]
sTDDFT_preconditioner conv 0.01
sTDDFT preconditioning Done
after 19 steps; 210.7754 s
final subspace 174
max_norm =  7.50e-03
initial_cost 1.8570s  0.88%
MVcost     47.4953s  22.53%
GScost     124.2624s  58.95%
subgencost 29.4812s  13.99%
subcost    0.6639s  0.31%
m & new_m 48 68

iteration 2
beginning of step 2 memory used: 71.25 GB
    CPU time for df vj and vk  55177.59 sec, wall time   2971.94 sec
    CPU time for df vj and vk  41231.06 sec, wall time   2099.37 sec
subspace size: 68
Maximum residual norm:  1.55e-02
unconverged states [0, 1, 2, 3, 4, 5, 6, 7, 8, 9, 10, 11, 12, 13, 14, 15, 16, 17, 18, 19]
sTDDFT_preconditioner conv 0.01
sTDDFT preconditioning Done
after 19 steps; 222.5417 s
final subspace 178
max_norm =  6.11e-03
initial_cost 1.9785s  0.89%
MVcost     47.4662s  21.33%
GScost     135.5740s  60.92%
subgencost 29.4764s  13.25%
subcost    0.6277s  0.28%
m & new_m 68 88

iteration 3
beginning of step 3 memory used: 71.33 GB
    CPU time for df vj and vk  55123.01 sec, wall time   2973.92 sec
    CPU time for df vj and vk  41185.45 sec, wall time   2096.72 sec
subspace size: 88
Maximum residual norm:  5.16e-03
unconverged states [0, 1, 2, 3, 4, 5, 6, 7, 8, 9, 10, 11, 12, 13, 14, 15, 16, 17, 18, 19]
sTDDFT_preconditioner conv 0.01
sTDDFT preconditioning Done
after 16 steps; 207.9656 s
final subspace 177
max_norm =  8.93e-03
initial_cost 1.8612s  0.89%
MVcost     47.6304s  22.90%
GScost     129.4833s  62.26%
subgencost 22.8119s  10.97%
subcost    0.5022s  0.24%
m & new_m 88 108

iteration 4
beginning of step 4 memory used: 71.39 GB
    CPU time for df vj and vk  55142.52 sec, wall time   2975.55 sec
    CPU time for df vj and vk  41147.38 sec, wall time   2093.83 sec
subspace size: 108
Maximum residual norm:  1.70e-03
unconverged states [0, 1, 2, 3, 4, 5, 6, 7, 8, 9, 10, 11, 12, 13, 14, 15, 16, 17, 18, 19]
sTDDFT_preconditioner conv 0.01
sTDDFT preconditioning Done
after 15 steps; 188.5011 s
final subspace 170
max_norm =  7.85e-03
initial_cost 1.8964s  1.01%
MVcost     44.9554s  23.85%
GScost     114.8823s  60.95%
subgencost 20.6615s  10.96%
subcost    0.4519s  0.24%
m & new_m 108 128

iteration 5
beginning of step 5 memory used: 71.45 GB
    CPU time for df vj and vk  55101.35 sec, wall time   2971.42 sec
    CPU time for df vj and vk  41236.79 sec, wall time   2099.67 sec
subspace size: 128
Maximum residual norm:  5.05e-04
unconverged states [0, 1, 2, 3, 4, 5, 6, 7, 8, 9, 10, 11, 12, 13, 14, 15, 16, 17, 18, 19]
sTDDFT_preconditioner conv 0.01
sTDDFT preconditioning Done
after 15 steps; 184.5347 s
final subspace 169
max_norm =  6.66e-03
initial_cost 1.9074s  1.03%
MVcost     44.7517s  24.25%
GScost     110.4595s  59.86%
subgencost 21.2850s  11.53%
subcost    0.4745s  0.26%
m & new_m 128 148

iteration 6
beginning of step 6 memory used: 71.41 GB
    CPU time for df vj and vk  55134.87 sec, wall time   2972.22 sec
    CPU time for df vj and vk  41209.51 sec, wall time   2098.43 sec
subspace size: 148
Maximum residual norm:  1.48e-04
unconverged states [0, 2, 3, 4, 5, 6, 7, 8, 9, 10, 11, 12, 13, 14, 15, 16, 17, 18, 19]
sTDDFT_preconditioner conv 0.01
sTDDFT preconditioning Done
after 20 steps; 197.6400 s
final subspace 169
max_norm =  6.32e-03
initial_cost 1.7194s  0.87%
MVcost     45.0409s  22.79%
GScost     113.9493s  57.65%
subgencost 28.5145s  14.43%
subcost    0.6228s  0.32%
m & new_m 148 167

iteration 7
beginning of step 7 memory used: 71.46 GB
    CPU time for df vj and vk  52408.15 sec, wall time   2827.84 sec
    CPU time for df vj and vk  39196.06 sec, wall time   1995.81 sec
subspace size: 167
Maximum residual norm:  4.53e-05
unconverged states [0, 4, 6, 7, 8, 9, 10, 12, 13, 15, 16, 17, 18, 19]
sTDDFT_preconditioner conv 0.01
sTDDFT preconditioning Done
after 15 steps; 120.1253 s
final subspace 132
max_norm =  8.82e-03
initial_cost 1.0134s  0.84%
MVcost     35.3876s  29.46%
GScost     64.9348s  54.06%
subgencost 15.0108s  12.50%
subcost    0.3195s  0.27%
m & new_m 167 181

iteration 8
beginning of step 8 memory used: 71.41 GB
    CPU time for df vj and vk  38608.79 sec, wall time   2082.91 sec
    CPU time for df vj and vk  28834.81 sec, wall time   1468.08 sec
subspace size: 181
Maximum residual norm:  1.19e-05
unconverged states [19]
sTDDFT_preconditioner conv 0.01
========== sTDDFT_precond Failed Due to Iteration Limit========
sTDDFT preconditioning failed
current residual norms [0.006149808472290309]
after 30 steps; 14.3247 s
final subspace 30
max_norm =  6.15e-03
initial_cost 0.0129s  0.09%
MVcost     9.2422s  64.52%
GScost     1.4824s  10.35%
subgencost 3.0774s  21.48%
subcost    0.0285s  0.20%
m & new_m 181 182

iteration 9
beginning of step 9 memory used: 71.36 GB
    CPU time for df vj and vk   2742.41 sec, wall time    154.86 sec
    CPU time for df vj and vk   2059.29 sec, wall time    105.22 sec
subspace size: 182
Maximum residual norm:  7.41e-06
TDDFT precedure Done

============= TDDFT Calculation Done ==============
after 10 iterations 53222.63 s
Final subspace  182
preconditioning cost 1571.5960 0.03 %
max_norm =  7.41e-06
Total TDDFT memory used: 71.33 GB
Excited State energies (eV) =
 [4.19199754 4.30655596 4.31882382 4.74932764 4.96633316 4.99002779
 5.317189   5.39133604 5.67694423 5.74449075 5.7799321  5.84798917
 5.85837848 5.94658314 6.00040927 6.03783256 6.17015814 6.26041807
 6.36391454 6.41162203]

Number of excited states = 20
Initial guess:   Adiag
Preconditioner:  Adiag
A matrix size =  222312
new_m = 28
initial guess done

iteration 0
beginning of step 0 memory used: 70.89 GB
    CPU time for df vj and vk  77103.04 sec, wall time   4151.61 sec
    CPU time for df vj and vk  57675.86 sec, wall time   2937.59 sec
subspace size: 28
Maximum residual norm:  2.02e-01
unconverged states [0, 1, 2, 3, 4, 5, 6, 7, 8, 9, 10, 11, 12, 13, 14, 15, 16, 17, 18, 19]
m & new_m 28 48

iteration 1
beginning of step 1 memory used: 71.18 GB
    CPU time for df vj and vk  55191.02 sec, wall time   2983.28 sec
    CPU time for df vj and vk  41265.57 sec, wall time   2103.92 sec
subspace size: 48
Maximum residual norm:  6.10e-02
unconverged states [0, 1, 2, 3, 4, 5, 6, 7, 8, 9, 10, 11, 12, 13, 14, 15, 16, 17, 18, 19]
m & new_m 48 68

iteration 2
beginning of step 2 memory used: 71.22 GB
    CPU time for df vj and vk  55220.69 sec, wall time   2983.90 sec
    CPU time for df vj and vk  41285.64 sec, wall time   2104.01 sec
subspace size: 68
Maximum residual norm:  7.53e-02
unconverged states [0, 1, 2, 3, 4, 5, 6, 7, 8, 9, 10, 11, 12, 13, 14, 15, 16, 17, 18, 19]
m & new_m 68 88

iteration 3
beginning of step 3 memory used: 71.25 GB
    CPU time for df vj and vk  55191.28 sec, wall time   2978.39 sec
    CPU time for df vj and vk  41258.92 sec, wall time   2102.43 sec
subspace size: 88
Maximum residual norm:  5.68e-02
unconverged states [0, 1, 2, 3, 4, 5, 6, 7, 8, 9, 10, 11, 12, 13, 14, 15, 16, 17, 18, 19]
m & new_m 88 108

iteration 4
beginning of step 4 memory used: 71.28 GB
    CPU time for df vj and vk  55204.30 sec, wall time   2982.53 sec
    CPU time for df vj and vk  41270.99 sec, wall time   2103.36 sec
subspace size: 108
Maximum residual norm:  3.67e-02
unconverged states [0, 1, 2, 3, 4, 5, 6, 7, 8, 9, 10, 11, 12, 13, 14, 15, 16, 17, 18, 19]
m & new_m 108 128

iteration 5
beginning of step 5 memory used: 71.32 GB
    CPU time for df vj and vk  55172.63 sec, wall time   2975.04 sec
    CPU time for df vj and vk  41251.80 sec, wall time   2102.96 sec
subspace size: 128
Maximum residual norm:  4.78e-02
unconverged states [0, 1, 2, 3, 4, 5, 6, 7, 8, 9, 10, 11, 12, 13, 14, 15, 16, 17, 18, 19]
m & new_m 128 148

iteration 6
beginning of step 6 memory used: 71.35 GB
    CPU time for df vj and vk  55160.21 sec, wall time   2981.01 sec
    CPU time for df vj and vk  41271.90 sec, wall time   2102.82 sec
subspace size: 148
Maximum residual norm:  1.10e-01
unconverged states [0, 1, 2, 3, 4, 5, 6, 7, 8, 9, 10, 11, 12, 13, 14, 15, 16, 17, 18, 19]
m & new_m 148 168

iteration 7
beginning of step 7 memory used: 71.35 GB
    CPU time for df vj and vk  55271.53 sec, wall time   2985.27 sec
    CPU time for df vj and vk  41290.68 sec, wall time   2104.81 sec
subspace size: 168
Maximum residual norm:  5.56e-02
unconverged states [0, 1, 2, 3, 4, 5, 6, 7, 8, 9, 10, 11, 12, 13, 14, 15, 16, 17, 18, 19]
m & new_m 168 188

iteration 8
beginning of step 8 memory used: 71.35 GB
    CPU time for df vj and vk  55187.50 sec, wall time   2975.49 sec
    CPU time for df vj and vk  41239.05 sec, wall time   2100.57 sec
subspace size: 188
Maximum residual norm:  2.64e-02
unconverged states [0, 1, 2, 3, 4, 5, 6, 7, 8, 9, 10, 11, 12, 13, 14, 15, 16, 17, 18, 19]
m & new_m 188 208

iteration 9
beginning of step 9 memory used: 71.35 GB
    CPU time for df vj and vk  55173.36 sec, wall time   2974.25 sec
    CPU time for df vj and vk  41238.17 sec, wall time   2099.84 sec
subspace size: 208
Maximum residual norm:  1.16e-02
unconverged states [0, 1, 3, 4, 5, 6, 7, 8, 9, 10, 11, 12, 13, 14, 15, 16, 17, 18, 19]
m & new_m 208 227

iteration 10
beginning of step 10 memory used: 71.35 GB
    CPU time for df vj and vk  52475.56 sec, wall time   2835.25 sec
    CPU time for df vj and vk  39238.98 sec, wall time   2000.03 sec
subspace size: 227
Maximum residual norm:  4.53e-03
unconverged states [6, 7, 8, 9, 10, 11, 12, 13, 14, 15, 16, 17, 18, 19]
m & new_m 227 241

iteration 11
beginning of step 11 memory used: 71.45 GB
    CPU time for df vj and vk  38609.78 sec, wall time   2089.28 sec
    CPU time for df vj and vk  28829.68 sec, wall time   1469.64 sec
subspace size: 241
Maximum residual norm:  1.56e-03
unconverged states [6, 7, 8, 9, 10, 11, 12, 13, 14, 15, 16, 17, 18, 19]
m & new_m 241 255

iteration 12
beginning of step 12 memory used: 71.51 GB
    CPU time for df vj and vk  38610.30 sec, wall time   2089.47 sec
    CPU time for df vj and vk  28790.37 sec, wall time   1469.84 sec
subspace size: 255
Maximum residual norm:  5.41e-04
unconverged states [9, 10, 11, 12, 13, 14, 15, 16, 17, 18, 19]
m & new_m 255 266

iteration 13
beginning of step 13 memory used: 71.46 GB
    CPU time for df vj and vk  30253.05 sec, wall time   1639.36 sec
    CPU time for df vj and vk  22618.03 sec, wall time   1151.61 sec
subspace size: 266
Maximum residual norm:  2.35e-04
unconverged states [9, 10, 11, 12, 13, 14, 15, 16, 17, 18, 19]
m & new_m 266 277

iteration 14
beginning of step 14 memory used: 71.50 GB
    CPU time for df vj and vk  30364.03 sec, wall time   1641.49 sec
    CPU time for df vj and vk  22680.39 sec, wall time   1154.95 sec
subspace size: 277
Maximum residual norm:  1.02e-04
unconverged states [9, 11, 13, 14, 16, 17, 18, 19]
m & new_m 277 285

iteration 15
beginning of step 15 memory used: 71.44 GB
    CPU time for df vj and vk  22083.86 sec, wall time   1195.37 sec
    CPU time for df vj and vk  16474.36 sec, wall time    838.93 sec
subspace size: 285
Maximum residual norm:  3.75e-05
unconverged states [14, 19]
m & new_m 285 287

iteration 16
beginning of step 16 memory used: 71.37 GB
    CPU time for df vj and vk   5498.51 sec, wall time    304.42 sec
    CPU time for df vj and vk   4123.59 sec, wall time    209.94 sec
subspace size: 287
Maximum residual norm:  1.49e-05
unconverged states [19]
m & new_m 287 288

iteration 17
beginning of step 17 memory used: 71.36 GB
    CPU time for df vj and vk   2735.19 sec, wall time    154.38 sec
    CPU time for df vj and vk   2061.58 sec, wall time    105.29 sec
subspace size: 288
Maximum residual norm:  8.30e-06
TDDFT precedure Done

============= TDDFT Calculation Done ==============
after 18 iterations 81852.31 s
Final subspace  288
preconditioning cost 4.2201 0.00 %
max_norm =  8.30e-06
Total TDDFT memory used: 71.29 GB
Excited State energies (eV) =
 [4.19199754 4.30655596 4.31882382 4.74932765 4.96633316 4.99002779
 5.317189   5.39133604 5.67694423 5.74449075 5.77993209 5.84798917
 5.85837848 5.94658314 6.00040927 6.03783256 6.17015814 6.26041807
 6.36391454 6.41162203]
xyzfile = 83_Dinoflagellate_luciferin.xyz
checkfile = True
method = RKS
functional = wb97x
basis_set = def2-tzvp
density_fit = True
grid_level = 3
nstates = 20
pytd = False
TDA = False
TDDFT = True
dynpol = False
dynpol_omega = []
stapol = False
sTDA = False
sTDDFT = False
Truncate_test = False
truncate_virtual = 40.0
ip_options = [0, 1]
conv_tolerance = 1e-05
initial_TOL = 0.001
precond_TOL = 0.01
extrainitial = 8
max = 30
eigensolver_tol = 1e-05
memory = 160000
verbose = 5
beta = []
alpha = []
|-------- In-house Developed TDDFT Ends ----------|
