curpath /scratch/pbsjobs/job.16219535.hpc
lib.num_threads() =  20
at beginning memory used: 0.05 GB
mol.max_memory 80000


System: uname_result(system='Linux', node='compt263', release='3.10.0-1127.el7.x86_64', version='#1 SMP Tue Feb 18 16:39:12 EST 2020', machine='x86_64', processor='x86_64')  Threads 20
Python 3.7.0 (default, Aug 23 2018, 14:24:33) 
[GCC 6.3.0]
numpy 1.18.1  scipy 1.4.1
Date: Mon Aug 30 19:10:46 2021
PySCF version 1.7.4
PySCF path  /home/zzz6/.local/lib/python3.7/site-packages/pyscf

[CONFIG] conf_file None
[INPUT] verbose = 5
[INPUT] max_memory = 80000 
[INPUT] num. atoms = 53
[INPUT] num. electrons = 222
[INPUT] charge = 0
[INPUT] spin (= nelec alpha-beta = 2S) = 0
[INPUT] symmetry False subgroup None
[INPUT] Mole.unit = angstrom
[INPUT]  1 O     -1.859081069441   2.190820885101  -2.006142183407 AA   -3.513154064606   4.140051460818  -3.791059293577 Bohr
[INPUT]  2 C     -1.699378063641   1.118298663531  -1.413700127590 AA   -3.211359122375   2.113278199542  -2.671506063408 Bohr
[INPUT]  3 C     -2.619671593779   0.000457815232  -1.109163041653 AA   -4.950461848545   0.000865145403  -2.096014376213 Bohr
[INPUT]  4 C     -4.074651159439   0.029068384848  -1.471729472039 AA   -7.699974744481   0.054931286247  -2.781165631605 Bohr
[INPUT]  5 C     -4.869041484895   0.852284863731  -0.463802624104 AA   -9.201154895597   1.610584972565  -0.876459935412 Bohr
[INPUT]  6 C     -5.636936802287   0.228427622732   0.532963840837 AA  -10.652266737804   0.431665646250   1.007155693479 Bohr
[INPUT]  7 C     -6.338719146219   0.982428936072   1.483570940882 AA  -11.978443166890   1.856521626024   2.803542764631 Bohr
[INPUT]  8 C     -6.271633995520   2.386205622181   1.454699769947 AA  -11.851670605045   4.509275102819   2.748984158668 Bohr
[INPUT]  9 O     -6.934690031148   3.175772886775   2.354967248276 AA  -13.104664917621   6.001340989824   4.450243131562 Bohr
[INPUT] 10 C     -5.495893188370   3.023732627096   0.468924049683 AA  -10.385732935882   5.714026539124   0.886138027122 Bohr
[INPUT] 11 C     -4.802955913141   2.261319737795  -0.474864537784 AA   -9.076271264197   4.273274984506  -0.897363922680 Bohr
[INPUT] 12 N     -2.036434887764  -0.991991764850  -0.435882535903 AA   -3.848304208383  -1.874592753391  -0.823698615337 Bohr
[INPUT] 13 C     -0.738250967830  -0.619178243355  -0.262383114370 AA   -1.395092140394  -1.170077302231  -0.495832225870 Bohr
[INPUT] 14 C      0.291640359043  -1.275299264263   0.361391626208 AA    0.551120405462  -2.409966336317   0.682931197244 Bohr
[INPUT] 15 C      0.145558859808  -2.635420244847   0.990327697537 AA    0.275066380040  -4.980222485896   1.871448121917 Bohr
[INPUT] 16 C      1.240506642201  -3.577899977298   0.520512131957 AA    2.344217809463  -6.761251058181   0.983625373913 Bohr
[INPUT] 17 C      2.309299877577  -3.924456379303   1.367513318649 AA    4.363944308112  -7.416147744684   2.584225643941 Bohr
[INPUT] 18 C      3.351628413800  -4.744754955840   0.907051473820 AA    6.333659773392  -8.966287394711   1.714078866404 Bohr
[INPUT] 19 C      3.334821371277  -5.226829313566  -0.408191710236 AA    6.301899066061  -9.877275902489  -0.771370538664 Bohr
[INPUT] 20 C      2.272388042502  -4.885958332558  -1.260901159909 AA    4.294191049065  -9.233123104572  -2.382757862374 Bohr
[INPUT] 21 C      1.235776593792  -4.065019539792  -0.801539757019 AA    2.335279313416  -7.681773621213  -1.514690618717 Bohr
[INPUT] 22 N      1.525791927526  -0.659141380461   0.412750664362 AA    2.883328866096  -1.245596686439   0.779985713377 Bohr
[INPUT] 23 H      2.327670425099  -1.250728787159   0.635134814431 AA    4.398659611687  -2.363534863840   1.200230851451 Bohr
[INPUT] 24 C      1.782140987932   0.599553624830  -0.171846309454 AA    3.367758382552   1.132992147919  -0.324742460386 Bohr
[INPUT] 25 C      3.147468758551   1.130907485919  -0.039637609418 AA    5.947853939286   2.137105420608  -0.074904226033 Bohr
[INPUT] 26 C      3.975276403310   0.757739753187   1.045787103103 AA    7.512183671703   1.431920607219   1.976251209468 Bohr
[INPUT] 27 C      5.271520567767   1.257779306716   1.181097486449 AA    9.961730133092   2.376858414839   2.231950775802 Bohr
[INPUT] 28 C      5.778286133626   2.160369763842   0.228783582553 AA   10.919378261924   4.082507181453   0.432338312821 Bohr
[INPUT] 29 O      7.049256343903   2.621384646795   0.403122758265 AA   13.321163871830   4.953699049583   0.761791607699 Bohr
[INPUT] 30 C      4.968461021865   2.544823243995  -0.857940887736 AA    9.389030591902   4.809018966578  -1.621273308888 Bohr
[INPUT] 31 C      3.677890542413   2.029621686624  -0.991491235644 AA    6.950205841289   3.835429124196  -1.873646890273 Bohr
[INPUT] 32 C      0.747530384802   1.255153356313  -0.781900220261 AA    1.412627697067   2.371896087760  -1.477577273030 Bohr
[INPUT] 33 N     -0.499318387839   0.656365831423  -0.846392567065 AA   -0.943575001975   1.240351658913  -1.599450145621 Bohr
[INPUT] 34 H     -4.176528798679   0.477650405849  -2.475872348474 AA   -7.892495580862   0.902628450342  -4.678720658000 Bohr
[INPUT] 35 H     -4.454923407274  -1.004220738825  -1.502915067265 AA   -8.418585145662  -1.897702164988  -2.840097865614 Bohr
[INPUT] 36 H     -5.692122435355  -0.865429705745   0.569734207454 AA  -10.756552470314  -1.635425123921   1.076641615885 Bohr
[INPUT] 37 H     -6.941174080395   0.479793793518   2.251171817170 AA  -13.116917994877   0.906678866016   4.254098193792 Bohr
[INPUT] 38 H     -7.421501030702   2.597307558642   2.968711622678 AA  -14.024604381204   4.908199947095   5.610051909674 Bohr
[INPUT] 39 H     -5.447198513000   4.116759496375   0.460621756310 AA  -10.293713335707   7.779547968851   0.870448966443 Bohr
[INPUT] 40 H     -4.178995164593   2.757801375371  -1.225974412460 AA   -7.897156336963   5.211489305400  -2.316755875274 Bohr
[INPUT] 41 H     -0.858042019591  -3.006974474001   0.729560642316 AA   -1.621464420396  -5.682358219420   1.378669805238 Bohr
[INPUT] 42 H      0.191958771191  -2.533592775013   2.090966721939 AA    0.362749504760  -4.787796455951   3.951354440044 Bohr
[INPUT] 43 H      2.318429552788  -3.558145990478   2.401351867166 AA    4.381196893867  -6.723921433223   4.537897357657 Bohr
[INPUT] 44 H      4.174529104311  -5.009101360155   1.579643267095 AA    7.888716706174  -9.465829700879   2.985093149322 Bohr
[INPUT] 45 H      4.145739231691  -5.867809435038  -0.769517570445 AA    7.834311731761 -11.088552783361  -1.454177456182 Bohr
[INPUT] 46 H      2.253585872807  -5.261672386322  -2.289456889971 AA    4.258660097794  -9.943119767336  -4.326446496043 Bohr
[INPUT] 47 H      0.412032511475  -3.791304155919  -1.470608704268 AA    0.778628601105  -7.164526509612  -2.779047687468 Bohr
[INPUT] 48 H      3.587441297160   0.087415136268   1.820571540721 AA    6.779281539587   0.165190666689   3.440381602140 Bohr
[INPUT] 49 H      5.903040860449   0.971039615493   2.026752955392 AA   11.155130528366   1.834998929385   3.830008007843 Bohr
[INPUT] 50 H      7.261154149422   3.239869188217  -0.319042890682 AA   13.721592690657   6.122465445148  -0.602903685378 Bohr
[INPUT] 51 H      5.361219408859   3.237013711556  -1.612796892852 AA   10.131236376447   6.117069376304  -3.047744422040 Bohr
[INPUT] 52 H      3.077912258189   2.313084328649  -1.861697905985 AA    5.816411203418   4.371095884170  -3.518099168988 Bohr
[INPUT] 53 H      0.819485465765   2.257977850111  -1.205793129206 AA    1.548603093358   4.266959732043  -2.278618777081 Bohr
[INPUT] ---------------- BASIS SET ---------------- 
[INPUT] l, kappa, [nprim/nctr], expnt,             c_1 c_2 ...
[INPUT] O
[INPUT] 0    0    [6    /1   ]  27032.382631      0.00021726302465
                                4052.3871392      0.0016838662199
                                922.3272271       0.0087395616265
                                261.24070989      0.035239968808
                                85.354641351      0.11153519115
                                31.035035245      0.25588953961
[INPUT] 0    0    [2    /1   ]  12.260860728      0.39768730901
                                4.9987076005      0.2462784943
[INPUT] 0    0    [1    /1   ]  1.1703108158         1
[INPUT] 0    0    [1    /1   ]  0.46474740994        1
[INPUT] 0    0    [1    /1   ]  0.18504536357        1
[INPUT] 1    0    [4    /1   ]  63.274954801      0.0060685103418
                                14.627049379      0.041912575824
                                4.4501223456      0.16153841088
                                1.5275799647      0.35706951311
[INPUT] 1    0    [1    /1   ]  0.52935117943        1
[INPUT] 1    0    [1    /1   ]  0.1747842127         1
[INPUT] 2    0    [1    /1   ]  2.314                1
[INPUT] 2    0    [1    /1   ]  0.645                1
[INPUT] 3    0    [1    /1   ]  1.428                1
[INPUT] N
[INPUT] 0    0    [6    /1   ]  19730.800647      0.00021887984991
                                2957.8958745      0.0016960708803
                                673.22133595      0.0087954603538
                                190.68249494      0.035359382605
                                62.295441898      0.11095789217
                                22.654161182      0.24982972552
[INPUT] 0    0    [2    /1   ]  8.9791477428      0.40623896148
                                3.686300237       0.24338217176
[INPUT] 0    0    [1    /1   ]  0.84660076805        1
[INPUT] 0    0    [1    /1   ]  0.33647133771        1
[INPUT] 0    0    [1    /1   ]  0.13647653675        1
[INPUT] 1    0    [4    /1   ]  49.20038051       0.0055552416751
                                11.346790537      0.038052379723
                                3.4273972411      0.14953671029
                                1.1785525134      0.3494930523
[INPUT] 1    0    [1    /1   ]  0.41642204972        1
[INPUT] 1    0    [1    /1   ]  0.14260826011        1
[INPUT] 2    0    [1    /1   ]  1.654                1
[INPUT] 2    0    [1    /1   ]  0.469                1
[INPUT] 3    0    [1    /1   ]  1.093                1
[INPUT] H
[INPUT] 0    0    [3    /1   ]  34.061341         0.0060251978
                                5.1235746         0.045021094
                                1.1646626         0.20189726
[INPUT] 0    0    [1    /1   ]  0.32723041           1
[INPUT] 0    0    [1    /1   ]  0.10307241           1
[INPUT] 1    0    [1    /1   ]  0.8                  1
[INPUT] C
[INPUT] 0    0    [6    /1   ]  13575.349682      0.00022245814352
                                2035.233368       0.0017232738252
                                463.22562359      0.0089255715314
                                131.20019598      0.035727984502
                                42.853015891      0.11076259931
                                15.584185766      0.24295627626
[INPUT] 0    0    [2    /1   ]  6.2067138508      0.41440263448
                                2.5764896527      0.23744968655
[INPUT] 0    0    [1    /1   ]  0.57696339419        1
[INPUT] 0    0    [1    /1   ]  0.22972831358        1
[INPUT] 0    0    [1    /1   ]  0.095164440028       1
[INPUT] 1    0    [4    /1   ]  34.697232244      0.0053333657805
                                7.9582622826      0.035864109092
                                2.3780826883      0.14215873329
                                0.81433208183     0.34270471845
[INPUT] 1    0    [1    /1   ]  0.28887547253        1
[INPUT] 1    0    [1    /1   ]  0.10056823671        1
[INPUT] 2    0    [1    /1   ]  1.097                1
[INPUT] 2    0    [1    /1   ]  0.318                1
[INPUT] 3    0    [1    /1   ]  0.761                1

nuclear repulsion = 2867.29919278269
number of shells = 436
number of NR pGTOs = 1640
number of NR cGTOs = 1118
basis = def2-tzvp
ecp = {}
CPU time:         2.85
RKS
Density fitting turned on
Molecule built
Calculating SCF Energy...


******** <class 'pyscf.df.df_jk.density_fit.<locals>.DFHF'> ********
method = DFHF-RKS-RHF
initial guess = chkfile
damping factor = 0
level_shift factor = 0
DIIS = <class 'pyscf.scf.diis.CDIIS'>
diis_start_cycle = 1
diis_space = 8
SCF conv_tol = 1e-10
SCF conv_tol_grad = None
SCF max_cycles = 50
direct_scf = True
direct_scf_tol = 1e-13
chkfile to save SCF result = 53_Coelenterazine_pbe0.chk
max_memory 80000 MB (current use 55 MB)
XC functionals = pbe0
small_rho_cutoff = 1e-07
radial grids: 
    Treutler-Ahlrichs [JCP 102, 346 (1995); DOI:10.1063/1.469408] (M4) radial grids
    
becke partition: Becke, JCP 88, 2547 (1988); DOI:10.1063/1.454033
pruning grids: <function nwchem_prune at 0x7fdb8890ee18>
grids dens level: 3
symmetrized grids: False
atomic radii adjust function: <function treutler_atomic_radii_adjust at 0x7fdb8890ed90>
Set gradient conv threshold to 1e-05
atom O rad-grids = 75, ang-grids = [ 50  50  50  50  50  50  50  50  50  50  50  50  50  50  50  50  50  50
  50  50  50  50  86  86  86  86  86  86  86  86  86 266 266 266 266 266
 266 266 302 302 302 302 302 302 302 302 302 302 302 302 302 302 302 302
 302 302 302 266 266 266 266 266 266 266 266 266 266 266 266 266 266 266
 266 266 266]
atom C rad-grids = 75, ang-grids = [ 50  50  50  50  50  50  50  50  50  50  50  50  50  50  50  50  50  50
  50  50  50  50  50  86  86  86  86  86  86  86  86  86  86 266 266 266
 266 266 266 266 302 302 302 302 302 302 302 302 302 302 302 302 302 302
 302 302 302 302 302 302 266 266 266 266 266 266 266 266 266 266 266 266
 266 266 266]
atom N rad-grids = 75, ang-grids = [ 50  50  50  50  50  50  50  50  50  50  50  50  50  50  50  50  50  50
  50  50  50  50  50  86  86  86  86  86  86  86  86  86 266 266 266 266
 266 266 266 302 302 302 302 302 302 302 302 302 302 302 302 302 302 302
 302 302 302 302 266 266 266 266 266 266 266 266 266 266 266 266 266 266
 266 266 266]
atom H rad-grids = 50, ang-grids = [ 50  50  50  50  50  50  50  50  50  50  50  50  50  50  86  86  86  86
 266 266 266 266 302 302 302 302 302 302 302 302 302 302 302 302 302 266
 266 266 266 266 266 266 266 266 266 266 266 266 266 266]
tot grids = 656880
Drop grids 115681
    CPU time for setting up grids    144.00 sec, wall time      8.90 sec
nelec by numeric integration = 222.00012674080477
    CPU time for vxc    229.14 sec, wall time     13.04 sec
******** <class 'pyscf.df.df.DF'> ********
auxbasis = None
max_memory = 80000
_cderi_to_save = /tmp/job.16219535.hpc/tmp_xigv2gq
Default auxbasis def2-tzvp-jkfit is used for O def2-tzvp
Default auxbasis def2-tzvp-jkfit is used for N def2-tzvp
Default auxbasis def2-tzvp-jkfit is used for H def2-tzvp
Default auxbasis def2-tzvp-jkfit is used for C def2-tzvp
num shells = 926, num cGTOs = 2790
size of aux basis 2790
int3c2e [1/1], AO [0:436], nrow = 625521
    CPU time for cholesky_eri    325.38 sec, wall time     61.96 sec
    CPU time for df vj and vk   1029.87 sec, wall time    107.89 sec
E1 = -7592.569672040558  Ecoul = 3526.875896606579  Exc = -193.856490746997
init E= -1392.25107339829
cond(S) = 1200136.4451512136
    CPU time for initialize scf   1413.50 sec, wall time    130.72 sec
  HOMO = -0.187054419531778  LUMO = -0.06312071364487
  mo_energy =
[-1.92566741e+01 -1.92320665e+01 -1.91564397e+01 -1.44487543e+01
 -1.44411138e+01 -1.43882565e+01 -1.03091883e+01 -1.03078401e+01
 -1.03035133e+01 -1.02921053e+01 -1.02914565e+01 -1.02812114e+01
 -1.02766432e+01 -1.02657226e+01 -1.02612114e+01 -1.02600894e+01
 -1.02584113e+01 -1.02535178e+01 -1.02529603e+01 -1.02496582e+01
 -1.02494530e+01 -1.02486539e+01 -1.02474786e+01 -1.02462352e+01
 -1.02458139e+01 -1.02444489e+01 -1.02279122e+01 -1.02264376e+01
 -1.02237789e+01 -1.02223994e+01 -1.02164078e+01 -1.02149355e+01
 -1.10847723e+00 -1.08257567e+00 -1.06756639e+00 -1.02262620e+00
 -9.95701740e-01 -9.31793345e-01 -9.01490454e-01 -8.95925773e-01
 -8.68633922e-01 -8.46230391e-01 -8.09903093e-01 -8.00525899e-01
 -7.90343408e-01 -7.83612055e-01 -7.77094377e-01 -7.64874599e-01
 -7.59323612e-01 -7.33254463e-01 -7.11179713e-01 -6.84588124e-01
 -6.64113306e-01 -6.47684077e-01 -6.40729070e-01 -6.34037899e-01
 -6.29917590e-01 -6.18642000e-01 -6.04480282e-01 -5.90230438e-01
 -5.79126903e-01 -5.68405389e-01 -5.54105355e-01 -5.48489850e-01
 -5.43207998e-01 -5.37168656e-01 -5.05184062e-01 -5.01980382e-01
 -4.95787400e-01 -4.88562253e-01 -4.85802357e-01 -4.84252660e-01
 -4.76158196e-01 -4.69936525e-01 -4.65858666e-01 -4.53493959e-01
 -4.48687028e-01 -4.47365815e-01 -4.45707658e-01 -4.44738275e-01
 -4.38955176e-01 -4.29677080e-01 -4.26792533e-01 -4.24686413e-01
 -4.20758609e-01 -4.16576669e-01 -4.14605880e-01 -4.08506633e-01
 -4.06585562e-01 -4.01907839e-01 -3.90503988e-01 -3.79310434e-01
 -3.77329156e-01 -3.69870759e-01 -3.68788387e-01 -3.67203820e-01
 -3.66688510e-01 -3.52191040e-01 -3.38346120e-01 -3.36808485e-01
 -3.32197426e-01 -3.20436844e-01 -2.87238577e-01 -2.85557120e-01
 -2.83492111e-01 -2.75594125e-01 -2.56780133e-01 -2.55175588e-01
 -2.39998569e-01 -2.22576669e-01 -1.87054420e-01 -6.31207136e-02
 -4.23934848e-02 -3.01031927e-02 -2.94715917e-02 -2.50365422e-02
 -1.12606724e-03  1.59178907e-02  2.48685023e-02  2.57689442e-02
  2.93867412e-02  4.37146673e-02  5.12331199e-02  6.09022325e-02
  6.21658484e-02  6.71084219e-02  7.28043373e-02  7.86024432e-02
  8.73486753e-02  9.11983085e-02  9.50916867e-02  9.58079084e-02
  9.99305299e-02  1.02698358e-01  1.05217063e-01  1.10425550e-01
  1.12927743e-01  1.22132439e-01  1.22811156e-01  1.26027837e-01
  1.30702796e-01  1.31945514e-01  1.36607709e-01  1.41425412e-01
  1.44779075e-01  1.51003702e-01  1.54642705e-01  1.56161990e-01
  1.62185759e-01  1.65382572e-01  1.69306068e-01  1.74571035e-01
  1.76474858e-01  1.77688460e-01  1.85882264e-01  1.90458930e-01
  1.96064466e-01  1.97093737e-01  2.00677554e-01  2.02392729e-01
  2.09793619e-01  2.13283540e-01  2.19736743e-01  2.22336733e-01
  2.23252250e-01  2.25086421e-01  2.31659165e-01  2.32266852e-01
  2.35614882e-01  2.37511676e-01  2.38493221e-01  2.41130819e-01
  2.45791573e-01  2.48358961e-01  2.51860622e-01  2.54629407e-01
  2.57306748e-01  2.58162894e-01  2.66181457e-01  2.66806503e-01
  2.70086696e-01  2.76067450e-01  2.78327559e-01  2.81319734e-01
  2.84253029e-01  2.85053316e-01  2.91535694e-01  2.93429464e-01
  2.95946802e-01  2.98995013e-01  3.01975818e-01  3.07789061e-01
  3.08989467e-01  3.12133734e-01  3.15437214e-01  3.16122926e-01
  3.28171942e-01  3.29659436e-01  3.34254720e-01  3.35776155e-01
  3.38984632e-01  3.42256229e-01  3.44751860e-01  3.48010419e-01
  3.50215300e-01  3.54595757e-01  3.55177624e-01  3.57748794e-01
  3.60936250e-01  3.63226748e-01  3.64326385e-01  3.66998913e-01
  3.68364460e-01  3.69739042e-01  3.72428809e-01  3.72911998e-01
  3.78903383e-01  3.82991240e-01  3.87055362e-01  3.90011831e-01
  3.94386333e-01  3.95503566e-01  3.99429320e-01  4.02740690e-01
  4.05167743e-01  4.07554832e-01  4.09333353e-01  4.12607102e-01
  4.17528337e-01  4.20356567e-01  4.24281444e-01  4.27917454e-01
  4.33711608e-01  4.33935633e-01  4.36190260e-01  4.40418819e-01
  4.44142471e-01  4.46168020e-01  4.52987160e-01  4.53237087e-01
  4.55794469e-01  4.58068986e-01  4.60834665e-01  4.63866321e-01
  4.68266343e-01  4.70679977e-01  4.72563057e-01  4.78430236e-01
  4.81854911e-01  4.83161073e-01  4.88715647e-01  4.89964100e-01
  4.92128749e-01  4.96194155e-01  4.99149136e-01  5.00254964e-01
  5.01621695e-01  5.05762524e-01  5.09501993e-01  5.13906806e-01
  5.21693200e-01  5.25227835e-01  5.30623628e-01  5.37143927e-01
  5.39588501e-01  5.44670574e-01  5.48461756e-01  5.53932054e-01
  5.59747290e-01  5.60476050e-01  5.65737798e-01  5.68150087e-01
  5.75580829e-01  5.79736462e-01  5.83868307e-01  5.84723074e-01
  5.89405421e-01  5.91767748e-01  5.97371718e-01  6.02840847e-01
  6.08862199e-01  6.11167665e-01  6.16175397e-01  6.25295514e-01
  6.28843667e-01  6.32017246e-01  6.35699092e-01  6.39581984e-01
  6.41278245e-01  6.44676970e-01  6.51451669e-01  6.51982138e-01
  6.58365795e-01  6.60468572e-01  6.65720685e-01  6.67643877e-01
  6.74787147e-01  6.79946653e-01  6.82871572e-01  6.84846018e-01
  6.87111587e-01  6.91845234e-01  6.93945757e-01  6.97824536e-01
  7.01794019e-01  7.05293310e-01  7.06812127e-01  7.10074441e-01
  7.14639577e-01  7.21766965e-01  7.24811761e-01  7.28368757e-01
  7.32656335e-01  7.34429633e-01  7.38496806e-01  7.42038561e-01
  7.44880524e-01  7.49592083e-01  7.53018338e-01  7.57680261e-01
  7.63034715e-01  7.66424179e-01  7.69030930e-01  7.73075420e-01
  7.81799693e-01  7.83442733e-01  7.86842770e-01  7.94376310e-01
  7.99260348e-01  8.01246480e-01  8.09311160e-01  8.09560135e-01
  8.17603216e-01  8.21801879e-01  8.25459974e-01  8.29655868e-01
  8.32911578e-01  8.36720160e-01  8.40659740e-01  8.48115824e-01
  8.49084548e-01  8.58979268e-01  8.61141319e-01  8.66729400e-01
  8.69253912e-01  8.76457371e-01  8.78930807e-01  8.81454458e-01
  8.88381637e-01  8.90905773e-01  8.98080815e-01  9.00516554e-01
  9.08402264e-01  9.12822733e-01  9.14609807e-01  9.23069302e-01
  9.25704747e-01  9.34091806e-01  9.37079555e-01  9.42593364e-01
  9.49553911e-01  9.60420703e-01  9.69831147e-01  9.75548958e-01
  9.79701002e-01  9.89267965e-01  9.95444529e-01  9.98838487e-01
  1.00792839e+00  1.01563359e+00  1.02328377e+00  1.02788574e+00
  1.03297118e+00  1.03708757e+00  1.04369931e+00  1.04670078e+00
  1.05077358e+00  1.05138537e+00  1.05814198e+00  1.06553883e+00
  1.06918444e+00  1.07382567e+00  1.07546329e+00  1.08450020e+00
  1.09074126e+00  1.09378876e+00  1.10494722e+00  1.11139997e+00
  1.12020880e+00  1.12434698e+00  1.12874442e+00  1.13719899e+00
  1.14445284e+00  1.15368621e+00  1.15743940e+00  1.17075258e+00
  1.17372656e+00  1.18373100e+00  1.18779843e+00  1.19570881e+00
  1.19964314e+00  1.20214388e+00  1.20762782e+00  1.21167044e+00
  1.21462766e+00  1.21912455e+00  1.22001397e+00  1.22760889e+00
  1.23341536e+00  1.23641086e+00  1.24374170e+00  1.24691772e+00
  1.25055436e+00  1.25746253e+00  1.26072759e+00  1.26807391e+00
  1.27463259e+00  1.27790232e+00  1.27929735e+00  1.28417611e+00
  1.29362597e+00  1.29495843e+00  1.30928264e+00  1.31166649e+00
  1.31388729e+00  1.32395799e+00  1.32858532e+00  1.33187504e+00
  1.33445886e+00  1.34808884e+00  1.34925082e+00  1.35488400e+00
  1.35735110e+00  1.36208821e+00  1.37858604e+00  1.38684669e+00
  1.38888135e+00  1.39273841e+00  1.40079896e+00  1.40712232e+00
  1.41904802e+00  1.42509431e+00  1.42961148e+00  1.43710909e+00
  1.44049769e+00  1.44397594e+00  1.44725033e+00  1.45544226e+00
  1.45739897e+00  1.46177789e+00  1.46571881e+00  1.46823013e+00
  1.47506070e+00  1.48290740e+00  1.48659470e+00  1.49833125e+00
  1.50475453e+00  1.50519652e+00  1.50793915e+00  1.51111996e+00
  1.51449417e+00  1.51632166e+00  1.52345098e+00  1.53708157e+00
  1.53901484e+00  1.54546772e+00  1.54921547e+00  1.56016041e+00
  1.56381378e+00  1.56599118e+00  1.57040616e+00  1.57555838e+00
  1.58068777e+00  1.59402113e+00  1.59585830e+00  1.60224521e+00
  1.60436614e+00  1.61136822e+00  1.61363612e+00  1.61615931e+00
  1.62191905e+00  1.62763549e+00  1.63210460e+00  1.63663636e+00
  1.64249452e+00  1.64903042e+00  1.65234283e+00  1.65549354e+00
  1.66092434e+00  1.66378626e+00  1.66953776e+00  1.67589352e+00
  1.67675594e+00  1.68087517e+00  1.68715647e+00  1.69096094e+00
  1.69600497e+00  1.69938810e+00  1.70193128e+00  1.70583657e+00
  1.71192243e+00  1.71412996e+00  1.71697705e+00  1.72621887e+00
  1.72780167e+00  1.73103353e+00  1.73917544e+00  1.74246079e+00
  1.74532366e+00  1.75330248e+00  1.75459396e+00  1.76106377e+00
  1.76619512e+00  1.77225569e+00  1.77782080e+00  1.78492624e+00
  1.79119049e+00  1.80273417e+00  1.81587046e+00  1.82276903e+00
  1.82537411e+00  1.83066261e+00  1.83907880e+00  1.84111633e+00
  1.84736003e+00  1.85448222e+00  1.85883325e+00  1.86432767e+00
  1.87621620e+00  1.88070345e+00  1.89182235e+00  1.89377049e+00
  1.89993222e+00  1.90047733e+00  1.90871177e+00  1.91520194e+00
  1.92124078e+00  1.93439355e+00  1.93948583e+00  1.94391107e+00
  1.94943454e+00  1.95290314e+00  1.95727290e+00  1.97552630e+00
  1.97665178e+00  1.98735573e+00  1.99448825e+00  2.00017242e+00
  2.00334162e+00  2.01718023e+00  2.02394819e+00  2.02675422e+00
  2.03165577e+00  2.03406511e+00  2.04251326e+00  2.04670989e+00
  2.05486920e+00  2.07107771e+00  2.07899054e+00  2.08520172e+00
  2.08942572e+00  2.09956358e+00  2.10953604e+00  2.11320376e+00
  2.11973114e+00  2.12114489e+00  2.12857962e+00  2.13125066e+00
  2.13662811e+00  2.14047033e+00  2.14700011e+00  2.14781668e+00
  2.15495054e+00  2.15945018e+00  2.16384616e+00  2.16619263e+00
  2.16813194e+00  2.17943332e+00  2.18298706e+00  2.19036519e+00
  2.20412981e+00  2.20606659e+00  2.21076005e+00  2.22122686e+00
  2.22383210e+00  2.23998908e+00  2.24412993e+00  2.24798346e+00
  2.25441448e+00  2.25973472e+00  2.26268583e+00  2.27520806e+00
  2.27968063e+00  2.28795470e+00  2.30024807e+00  2.30452473e+00
  2.31100433e+00  2.31727683e+00  2.31902405e+00  2.33136688e+00
  2.33631860e+00  2.34257452e+00  2.36312995e+00  2.37193507e+00
  2.37902539e+00  2.39121533e+00  2.39510348e+00  2.40629101e+00
  2.40984265e+00  2.42029552e+00  2.42153704e+00  2.43143894e+00
  2.43798265e+00  2.44510211e+00  2.44693138e+00  2.46002437e+00
  2.46546601e+00  2.47579608e+00  2.48230677e+00  2.48840997e+00
  2.49963410e+00  2.50604569e+00  2.51571220e+00  2.52325994e+00
  2.52871033e+00  2.53405917e+00  2.53802913e+00  2.54942418e+00
  2.55045104e+00  2.55640411e+00  2.55994615e+00  2.56951538e+00
  2.57214935e+00  2.57981916e+00  2.58209254e+00  2.58568127e+00
  2.59036538e+00  2.59987390e+00  2.60296816e+00  2.60696297e+00
  2.61181393e+00  2.62336338e+00  2.63008589e+00  2.63360196e+00
  2.63503691e+00  2.64190874e+00  2.64511586e+00  2.64641011e+00
  2.65181928e+00  2.65304243e+00  2.65599556e+00  2.65924778e+00
  2.66402254e+00  2.66933589e+00  2.67041557e+00  2.67923076e+00
  2.68571556e+00  2.68819821e+00  2.69565620e+00  2.69655966e+00
  2.70174543e+00  2.70360352e+00  2.70826657e+00  2.70878553e+00
  2.71016663e+00  2.72257978e+00  2.72832578e+00  2.73475295e+00
  2.73864542e+00  2.75194223e+00  2.75718668e+00  2.76158149e+00
  2.76421243e+00  2.77123160e+00  2.77543423e+00  2.77809293e+00
  2.78626669e+00  2.79012406e+00  2.79204947e+00  2.79805035e+00
  2.80476582e+00  2.80642470e+00  2.81130423e+00  2.81431965e+00
  2.81624072e+00  2.82358912e+00  2.82573500e+00  2.82907851e+00
  2.83451758e+00  2.83734406e+00  2.84267446e+00  2.84717854e+00
  2.85104544e+00  2.85616080e+00  2.85958556e+00  2.87091354e+00
  2.87495545e+00  2.87924970e+00  2.88202235e+00  2.89231785e+00
  2.89977979e+00  2.90104876e+00  2.90643306e+00  2.91531650e+00
  2.92082020e+00  2.92611102e+00  2.93349719e+00  2.93585812e+00
  2.94348617e+00  2.94397925e+00  2.94905975e+00  2.95689335e+00
  2.96596677e+00  2.96841299e+00  2.97094299e+00  2.97399857e+00
  2.98263587e+00  2.98771126e+00  2.99224998e+00  2.99933235e+00
  3.00228794e+00  3.00553283e+00  3.01109768e+00  3.01981781e+00
  3.02890853e+00  3.03266816e+00  3.03859327e+00  3.04723617e+00
  3.05325309e+00  3.06082803e+00  3.07096883e+00  3.07294647e+00
  3.08028002e+00  3.08277240e+00  3.08630197e+00  3.09209686e+00
  3.09690801e+00  3.10096605e+00  3.11093498e+00  3.11108784e+00
  3.11916841e+00  3.12268907e+00  3.12514370e+00  3.12681744e+00
  3.12843705e+00  3.13605673e+00  3.13662400e+00  3.13953413e+00
  3.14266847e+00  3.14887508e+00  3.14961524e+00  3.15374977e+00
  3.15674992e+00  3.16207393e+00  3.16495595e+00  3.17304041e+00
  3.17448575e+00  3.18229647e+00  3.18402999e+00  3.19006806e+00
  3.19685465e+00  3.20159236e+00  3.20230257e+00  3.20481209e+00
  3.21168145e+00  3.21745971e+00  3.21762096e+00  3.22355837e+00
  3.23065504e+00  3.23209184e+00  3.23903986e+00  3.24405173e+00
  3.24661966e+00  3.25352634e+00  3.26091735e+00  3.26331079e+00
  3.26756530e+00  3.27147950e+00  3.27645008e+00  3.28245368e+00
  3.28408477e+00  3.29144862e+00  3.29337463e+00  3.29590748e+00
  3.30088950e+00  3.30491134e+00  3.30920908e+00  3.31167588e+00
  3.31693851e+00  3.31834843e+00  3.32708440e+00  3.33007768e+00
  3.33531203e+00  3.33738783e+00  3.34611072e+00  3.34865603e+00
  3.35610262e+00  3.36292463e+00  3.36538713e+00  3.37342137e+00
  3.37567511e+00  3.37997629e+00  3.38383222e+00  3.38833703e+00
  3.39014502e+00  3.39297582e+00  3.39964399e+00  3.40727718e+00
  3.41191128e+00  3.41261018e+00  3.41772770e+00  3.41874870e+00
  3.42736591e+00  3.43180321e+00  3.43376577e+00  3.44200311e+00
  3.44656524e+00  3.45357505e+00  3.46212587e+00  3.46291905e+00
  3.46471695e+00  3.46864131e+00  3.47268786e+00  3.47963010e+00
  3.48604896e+00  3.49056673e+00  3.49546157e+00  3.49758221e+00
  3.50008372e+00  3.50453104e+00  3.50667723e+00  3.51032881e+00
  3.51791866e+00  3.52011836e+00  3.52302581e+00  3.52638942e+00
  3.53345367e+00  3.53551611e+00  3.55120544e+00  3.55175462e+00
  3.55601698e+00  3.56846872e+00  3.57382895e+00  3.58293375e+00
  3.58349631e+00  3.59343559e+00  3.60367377e+00  3.61207471e+00
  3.61776568e+00  3.61964482e+00  3.62571568e+00  3.63270333e+00
  3.65035721e+00  3.65648579e+00  3.66304756e+00  3.67389222e+00
  3.68367548e+00  3.69372441e+00  3.70359700e+00  3.70743952e+00
  3.72301321e+00  3.72906401e+00  3.73494679e+00  3.74779430e+00
  3.75462804e+00  3.75579084e+00  3.75927509e+00  3.77243388e+00
  3.77595535e+00  3.78704426e+00  3.79723258e+00  3.80341196e+00
  3.80733809e+00  3.82163752e+00  3.82737897e+00  3.83994744e+00
  3.84348915e+00  3.85841367e+00  3.86427094e+00  3.87564977e+00
  3.88031358e+00  3.88990739e+00  3.89426984e+00  3.90935452e+00
  3.91370300e+00  3.92217136e+00  3.92410484e+00  3.93180062e+00
  3.94740914e+00  3.95035659e+00  3.95774427e+00  3.96315624e+00
  3.97094162e+00  3.98130629e+00  3.98760564e+00  3.99613798e+00
  4.00546272e+00  4.00646516e+00  4.01473233e+00  4.01790766e+00
  4.02786284e+00  4.03623497e+00  4.04282937e+00  4.04703956e+00
  4.06015686e+00  4.08063056e+00  4.09090650e+00  4.09621741e+00
  4.10514256e+00  4.11847606e+00  4.12715420e+00  4.13155069e+00
  4.14614453e+00  4.14794000e+00  4.15671085e+00  4.16276717e+00
  4.16585280e+00  4.16935793e+00  4.17572219e+00  4.18318879e+00
  4.18680635e+00  4.19298224e+00  4.19871805e+00  4.20022251e+00
  4.20691715e+00  4.21122144e+00  4.21392473e+00  4.22183352e+00
  4.22906331e+00  4.23004643e+00  4.23950234e+00  4.24480792e+00
  4.25299862e+00  4.25967418e+00  4.27283148e+00  4.27437866e+00
  4.28530776e+00  4.28920465e+00  4.29439530e+00  4.30350631e+00
  4.31330469e+00  4.32372035e+00  4.33118335e+00  4.35042717e+00
  4.35704217e+00  4.36986475e+00  4.38082698e+00  4.39808833e+00
  4.41145777e+00  4.42942386e+00  4.43257698e+00  4.44923135e+00
  4.45518281e+00  4.47246192e+00  4.49526730e+00  4.50342054e+00
  4.50816961e+00  4.51689835e+00  4.53953520e+00  4.55326373e+00
  4.57379962e+00  4.58157308e+00  4.59358849e+00  4.59824782e+00
  4.61124745e+00  4.62164269e+00  4.64404256e+00  4.65394175e+00
  4.66248727e+00  4.67299937e+00  4.68105769e+00  4.68805285e+00
  4.70475043e+00  4.71376867e+00  4.72158254e+00  4.73579550e+00
  4.74642740e+00  4.76012066e+00  4.78704516e+00  4.79112395e+00
  4.79544910e+00  4.81618035e+00  4.82748764e+00  4.83428213e+00
  4.84514876e+00  4.85458198e+00  4.86930304e+00  4.87362594e+00
  4.87670726e+00  4.89048414e+00  4.90439538e+00  4.90598987e+00
  4.93174560e+00  4.93947598e+00  4.94510956e+00  4.96072232e+00
  4.96407553e+00  4.97535089e+00  4.98546093e+00  5.00204024e+00
  5.03447155e+00  5.04531055e+00  5.06258908e+00  5.08975286e+00
  5.09537618e+00  5.10158250e+00  5.13285182e+00  5.13556012e+00
  5.14157309e+00  5.15811469e+00  5.17106835e+00  5.17710729e+00
  5.17813122e+00  5.18972279e+00  5.19445913e+00  5.19791376e+00
  5.22078971e+00  5.25702789e+00  5.26120388e+00  5.26808527e+00
  5.28079027e+00  5.28147581e+00  5.31505416e+00  5.31648087e+00
  5.32292596e+00  5.33837604e+00  5.34762796e+00  5.38500297e+00
  5.38884080e+00  5.39506490e+00  5.40229878e+00  5.41261157e+00
  5.44103767e+00  5.45738587e+00  5.46637055e+00  5.48111677e+00
  5.48438036e+00  5.48668285e+00  5.49509054e+00  5.51402466e+00
  5.53488344e+00  5.54203581e+00  5.57987904e+00  5.60668581e+00
  5.63014760e+00  5.63989185e+00  5.67116155e+00  5.67810765e+00
  5.70921852e+00  5.71907795e+00  5.72614595e+00  5.76042150e+00
  5.78416815e+00  5.79827334e+00  5.82578047e+00  5.90822275e+00
  5.94736056e+00  5.98414715e+00  6.00075266e+00  6.06278036e+00
  6.06991119e+00  6.18329404e+00  6.21471791e+00  6.23561377e+00
  6.28740188e+00  6.29388737e+00  6.36396200e+00  6.38896236e+00
  6.39685884e+00  6.41949042e+00  6.44269618e+00  6.45459882e+00
  6.49449225e+00  6.61730034e+00  6.71342444e+00  6.73371426e+00
  6.79978865e+00  6.82274946e+00  6.88521014e+00  6.90283792e+00
  6.98996510e+00  7.01077371e+00  7.15258918e+00  7.18867342e+00
  7.26963018e+00  7.28505168e+00  2.21790307e+01  2.22046217e+01
  2.22675667e+01  2.25572230e+01  2.26110513e+01  2.26164289e+01
  2.26795798e+01  2.26964873e+01  2.27058027e+01  2.27164316e+01
  2.27364819e+01  2.27545910e+01  2.27586754e+01  2.27848835e+01
  2.27962018e+01  2.28117897e+01  2.29291141e+01  2.29445053e+01
  2.30162201e+01  2.31550067e+01  2.31717343e+01  2.32326999e+01
  2.33280850e+01  2.33905044e+01  2.35647592e+01  2.35961924e+01
  3.26002705e+01  3.27459014e+01  3.32047786e+01  4.40146521e+01
  4.40287671e+01  4.41744716e+01]
nelec by numeric integration = 222.00012674009253
    CPU time for vxc    174.60 sec, wall time      9.42 sec
    CPU time for df vj and vk    715.64 sec, wall time     46.90 sec
E1 = -7592.569607895585  Ecoul = 3526.875825220467  Exc = -193.85648350569406
cycle= 1 E= -1392.25107339813  delta_E= 1.64e-10  |g|= 2.9e-05  |ddm|= 5.63e-05
    CPU time for cycle= 1    896.96 sec, wall time     56.90 sec
  HOMO = -0.18705517347297  LUMO = -0.0631198146660619
  mo_energy =
[-1.92566729e+01 -1.92320661e+01 -1.91564524e+01 -1.44487678e+01
 -1.44411123e+01 -1.43882416e+01 -1.03091918e+01 -1.03078359e+01
 -1.03035219e+01 -1.02921088e+01 -1.02914514e+01 -1.02812160e+01
 -1.02766433e+01 -1.02657099e+01 -1.02612171e+01 -1.02600895e+01
 -1.02584158e+01 -1.02535212e+01 -1.02529586e+01 -1.02496625e+01
 -1.02494552e+01 -1.02486551e+01 -1.02474761e+01 -1.02462330e+01
 -1.02458142e+01 -1.02444531e+01 -1.02279064e+01 -1.02264305e+01
 -1.02237748e+01 -1.02224011e+01 -1.02164074e+01 -1.02149393e+01
 -1.10847770e+00 -1.08257661e+00 -1.06756498e+00 -1.02263062e+00
 -9.95702822e-01 -9.31789591e-01 -9.01491940e-01 -8.95927374e-01
 -8.68632553e-01 -8.46232210e-01 -8.09904823e-01 -8.00523564e-01
 -7.90344800e-01 -7.83612865e-01 -7.77094616e-01 -7.64875029e-01
 -7.59323544e-01 -7.33254241e-01 -7.11179024e-01 -6.84588275e-01
 -6.64114719e-01 -6.47683580e-01 -6.40730026e-01 -6.34039320e-01
 -6.29917207e-01 -6.18642804e-01 -6.04479944e-01 -5.90229900e-01
 -5.79127799e-01 -5.68406903e-01 -5.54105505e-01 -5.48490119e-01
 -5.43207967e-01 -5.37168300e-01 -5.05185146e-01 -5.01981395e-01
 -4.95786251e-01 -4.88561366e-01 -4.85803063e-01 -4.84252835e-01
 -4.76159343e-01 -4.69935943e-01 -4.65859475e-01 -4.53495643e-01
 -4.48687800e-01 -4.47367740e-01 -4.45708737e-01 -4.44739468e-01
 -4.38954771e-01 -4.29675133e-01 -4.26793729e-01 -4.24686136e-01
 -4.20759152e-01 -4.16577704e-01 -4.14605869e-01 -4.08507964e-01
 -4.06585370e-01 -4.01908917e-01 -3.90505038e-01 -3.79310063e-01
 -3.77328102e-01 -3.69869354e-01 -3.68789404e-01 -3.67204883e-01
 -3.66689420e-01 -3.52189279e-01 -3.38345453e-01 -3.36807010e-01
 -3.32198560e-01 -3.20431971e-01 -2.87239582e-01 -2.85557166e-01
 -2.83492935e-01 -2.75595199e-01 -2.56779996e-01 -2.55176060e-01
 -2.39998699e-01 -2.22575768e-01 -1.87055173e-01 -6.31198147e-02
 -4.23942635e-02 -3.01043114e-02 -2.94728414e-02 -2.50375151e-02
 -1.12559611e-03  1.59188585e-02  2.48678936e-02  2.57679969e-02
  2.93853391e-02  4.37144572e-02  5.12326712e-02  6.09018576e-02
  6.21664579e-02  6.71073422e-02  7.28049099e-02  7.86018093e-02
  8.73495136e-02  9.12002066e-02  9.50914807e-02  9.58080300e-02
  9.99309317e-02  1.02697787e-01  1.05217481e-01  1.10425185e-01
  1.12926875e-01  1.22131924e-01  1.22811639e-01  1.26027261e-01
  1.30702015e-01  1.31944770e-01  1.36607680e-01  1.41426000e-01
  1.44778278e-01  1.51004668e-01  1.54642376e-01  1.56161690e-01
  1.62186190e-01  1.65382585e-01  1.69306060e-01  1.74571181e-01
  1.76474192e-01  1.77688162e-01  1.85882656e-01  1.90459992e-01
  1.96065200e-01  1.97093319e-01  2.00677083e-01  2.02391903e-01
  2.09793463e-01  2.13282655e-01  2.19736185e-01  2.22336525e-01
  2.23251970e-01  2.25085972e-01  2.31658453e-01  2.32266552e-01
  2.35614826e-01  2.37511450e-01  2.38492726e-01  2.41130789e-01
  2.45791516e-01  2.48358323e-01  2.51860284e-01  2.54629295e-01
  2.57306958e-01  2.58163053e-01  2.66181249e-01  2.66805708e-01
  2.70085975e-01  2.76067484e-01  2.78327209e-01  2.81319510e-01
  2.84253361e-01  2.85052958e-01  2.91535943e-01  2.93429136e-01
  2.95945967e-01  2.98994774e-01  3.01975841e-01  3.07790182e-01
  3.08990750e-01  3.12133817e-01  3.15437335e-01  3.16123125e-01
  3.28171737e-01  3.29659573e-01  3.34255128e-01  3.35775863e-01
  3.38984074e-01  3.42255184e-01  3.44751655e-01  3.48010699e-01
  3.50214354e-01  3.54595735e-01  3.55177571e-01  3.57747883e-01
  3.60936009e-01  3.63227263e-01  3.64326750e-01  3.66998999e-01
  3.68364876e-01  3.69739291e-01  3.72428434e-01  3.72912051e-01
  3.78903493e-01  3.82991394e-01  3.87055216e-01  3.90011970e-01
  3.94386193e-01  3.95504263e-01  3.99429575e-01  4.02740387e-01
  4.05167497e-01  4.07555079e-01  4.09333023e-01  4.12606897e-01
  4.17528515e-01  4.20356086e-01  4.24281266e-01  4.27917479e-01
  4.33711207e-01  4.33935405e-01  4.36189843e-01  4.40419170e-01
  4.44142851e-01  4.46167961e-01  4.52987365e-01  4.53237116e-01
  4.55794487e-01  4.58068394e-01  4.60834307e-01  4.63866346e-01
  4.68266062e-01  4.70679522e-01  4.72562908e-01  4.78430263e-01
  4.81854520e-01  4.83161302e-01  4.88715508e-01  4.89963887e-01
  4.92128459e-01  4.96193675e-01  4.99149582e-01  5.00254461e-01
  5.01621845e-01  5.05762701e-01  5.09501860e-01  5.13906518e-01
  5.21693078e-01  5.25227809e-01  5.30624613e-01  5.37144016e-01
  5.39588259e-01  5.44670722e-01  5.48462176e-01  5.53933087e-01
  5.59747705e-01  5.60476200e-01  5.65737869e-01  5.68149700e-01
  5.75581197e-01  5.79737077e-01  5.83868355e-01  5.84723165e-01
  5.89405175e-01  5.91767748e-01  5.97372121e-01  6.02841079e-01
  6.08862808e-01  6.11168278e-01  6.16174760e-01  6.25295385e-01
  6.28843867e-01  6.32016892e-01  6.35698878e-01  6.39581247e-01
  6.41277889e-01  6.44676922e-01  6.51451104e-01  6.51981681e-01
  6.58365218e-01  6.60468424e-01  6.65720704e-01  6.67643658e-01
  6.74786327e-01  6.79946049e-01  6.82871534e-01  6.84845387e-01
  6.87111497e-01  6.91844461e-01  6.93945545e-01  6.97824334e-01
  7.01793396e-01  7.05293263e-01  7.06812421e-01  7.10074103e-01
  7.14638846e-01  7.21766150e-01  7.24811765e-01  7.28368342e-01
  7.32656429e-01  7.34429833e-01  7.38497032e-01  7.42038142e-01
  7.44880339e-01  7.49592059e-01  7.53018103e-01  7.57680407e-01
  7.63034298e-01  7.66424024e-01  7.69031017e-01  7.73075255e-01
  7.81799537e-01  7.83442586e-01  7.86842336e-01  7.94376064e-01
  7.99260159e-01  8.01245707e-01  8.09310815e-01  8.09559508e-01
  8.17603831e-01  8.21801674e-01  8.25460240e-01  8.29656149e-01
  8.32911208e-01  8.36719336e-01  8.40660610e-01  8.48115378e-01
  8.49084463e-01  8.58979029e-01  8.61140847e-01  8.66729232e-01
  8.69253617e-01  8.76457161e-01  8.78931300e-01  8.81454109e-01
  8.88381404e-01  8.90906247e-01  8.98080774e-01  9.00516577e-01
  9.08402218e-01  9.12822991e-01  9.14609825e-01  9.23069564e-01
  9.25704962e-01  9.34091455e-01  9.37079470e-01  9.42593118e-01
  9.49552968e-01  9.60420155e-01  9.69831185e-01  9.75549306e-01
  9.79701616e-01  9.89267971e-01  9.95443789e-01  9.98838232e-01
  1.00792803e+00  1.01563291e+00  1.02328477e+00  1.02788566e+00
  1.03297229e+00  1.03708763e+00  1.04369950e+00  1.04670099e+00
  1.05077291e+00  1.05138504e+00  1.05814107e+00  1.06553861e+00
  1.06918509e+00  1.07382556e+00  1.07546334e+00  1.08449955e+00
  1.09074153e+00  1.09378835e+00  1.10494736e+00  1.11139954e+00
  1.12020850e+00  1.12434799e+00  1.12874451e+00  1.13719813e+00
  1.14445282e+00  1.15368585e+00  1.15743948e+00  1.17075239e+00
  1.17372658e+00  1.18373042e+00  1.18779806e+00  1.19570845e+00
  1.19964293e+00  1.20214336e+00  1.20762768e+00  1.21167072e+00
  1.21462744e+00  1.21912400e+00  1.22001369e+00  1.22760865e+00
  1.23341477e+00  1.23641093e+00  1.24374134e+00  1.24691754e+00
  1.25055423e+00  1.25746295e+00  1.26072860e+00  1.26807441e+00
  1.27463240e+00  1.27790221e+00  1.27929696e+00  1.28417639e+00
  1.29362656e+00  1.29495814e+00  1.30928276e+00  1.31166594e+00
  1.31388755e+00  1.32395806e+00  1.32858520e+00  1.33187522e+00
  1.33445949e+00  1.34808895e+00  1.34925168e+00  1.35488356e+00
  1.35735046e+00  1.36208810e+00  1.37858523e+00  1.38684674e+00
  1.38888123e+00  1.39273811e+00  1.40079835e+00  1.40712182e+00
  1.41904767e+00  1.42509353e+00  1.42961152e+00  1.43710848e+00
  1.44049740e+00  1.44397572e+00  1.44725046e+00  1.45544204e+00
  1.45739822e+00  1.46177748e+00  1.46571889e+00  1.46823071e+00
  1.47506000e+00  1.48290800e+00  1.48659409e+00  1.49833114e+00
  1.50475430e+00  1.50519664e+00  1.50793930e+00  1.51111950e+00
  1.51449391e+00  1.51632152e+00  1.52345059e+00  1.53708186e+00
  1.53901466e+00  1.54546677e+00  1.54921514e+00  1.56016063e+00
  1.56381348e+00  1.56599153e+00  1.57040585e+00  1.57555880e+00
  1.58068866e+00  1.59402115e+00  1.59585851e+00  1.60224499e+00
  1.60436642e+00  1.61136876e+00  1.61363586e+00  1.61615893e+00
  1.62191900e+00  1.62763582e+00  1.63210429e+00  1.63663663e+00
  1.64249451e+00  1.64903018e+00  1.65234323e+00  1.65549344e+00
  1.66092418e+00  1.66378688e+00  1.66953817e+00  1.67589370e+00
  1.67675590e+00  1.68087502e+00  1.68715603e+00  1.69096074e+00
  1.69600418e+00  1.69938727e+00  1.70193084e+00  1.70583674e+00
  1.71192198e+00  1.71413066e+00  1.71697638e+00  1.72621889e+00
  1.72780225e+00  1.73103316e+00  1.73917628e+00  1.74246021e+00
  1.74532337e+00  1.75330204e+00  1.75459423e+00  1.76106290e+00
  1.76619546e+00  1.77225600e+00  1.77782050e+00  1.78492626e+00
  1.79119034e+00  1.80273421e+00  1.81587031e+00  1.82276845e+00
  1.82537350e+00  1.83066347e+00  1.83907836e+00  1.84111597e+00
  1.84735952e+00  1.85448176e+00  1.85883217e+00  1.86432810e+00
  1.87621537e+00  1.88070365e+00  1.89182203e+00  1.89377063e+00
  1.89993202e+00  1.90047802e+00  1.90871100e+00  1.91520241e+00
  1.92124140e+00  1.93439379e+00  1.93948527e+00  1.94391015e+00
  1.94943340e+00  1.95290404e+00  1.95727239e+00  1.97552542e+00
  1.97665193e+00  1.98735681e+00  1.99448707e+00  2.00017131e+00
  2.00334117e+00  2.01718032e+00  2.02394892e+00  2.02675295e+00
  2.03165688e+00  2.03406420e+00  2.04251379e+00  2.04670894e+00
  2.05486911e+00  2.07107669e+00  2.07898976e+00  2.08520094e+00
  2.08942544e+00  2.09956335e+00  2.10953641e+00  2.11320514e+00
  2.11973149e+00  2.12114473e+00  2.12857922e+00  2.13124956e+00
  2.13662830e+00  2.14047006e+00  2.14699902e+00  2.14781647e+00
  2.15495014e+00  2.15944967e+00  2.16384654e+00  2.16619343e+00
  2.16813093e+00  2.17943363e+00  2.18298742e+00  2.19036442e+00
  2.20412894e+00  2.20606681e+00  2.21076046e+00  2.22122560e+00
  2.22383123e+00  2.23998885e+00  2.24412989e+00  2.24798464e+00
  2.25441470e+00  2.25973356e+00  2.26268552e+00  2.27520802e+00
  2.27968058e+00  2.28795577e+00  2.30024852e+00  2.30452410e+00
  2.31100373e+00  2.31727748e+00  2.31902429e+00  2.33136644e+00
  2.33631883e+00  2.34257291e+00  2.36313061e+00  2.37193558e+00
  2.37902498e+00  2.39121504e+00  2.39510505e+00  2.40628999e+00
  2.40984306e+00  2.42029595e+00  2.42153667e+00  2.43143910e+00
  2.43798192e+00  2.44510118e+00  2.44693231e+00  2.46002450e+00
  2.46546550e+00  2.47579668e+00  2.48230656e+00  2.48841067e+00
  2.49963379e+00  2.50604379e+00  2.51571147e+00  2.52325941e+00
  2.52871108e+00  2.53405907e+00  2.53802869e+00  2.54942442e+00
  2.55045050e+00  2.55640391e+00  2.55994701e+00  2.56951444e+00
  2.57214953e+00  2.57981917e+00  2.58209173e+00  2.58568112e+00
  2.59036450e+00  2.59987422e+00  2.60296744e+00  2.60696308e+00
  2.61181302e+00  2.62336269e+00  2.63008673e+00  2.63360135e+00
  2.63503790e+00  2.64190865e+00  2.64511590e+00  2.64641125e+00
  2.65181922e+00  2.65304186e+00  2.65599613e+00  2.65924704e+00
  2.66402131e+00  2.66933490e+00  2.67041487e+00  2.67922942e+00
  2.68571535e+00  2.68819770e+00  2.69565581e+00  2.69655932e+00
  2.70174609e+00  2.70360385e+00  2.70826658e+00  2.70878502e+00
  2.71016740e+00  2.72258021e+00  2.72832480e+00  2.73475291e+00
  2.73864441e+00  2.75194150e+00  2.75718643e+00  2.76158165e+00
  2.76421144e+00  2.77123080e+00  2.77543344e+00  2.77809193e+00
  2.78626588e+00  2.79012423e+00  2.79204858e+00  2.79804972e+00
  2.80476612e+00  2.80642455e+00  2.81130385e+00  2.81431968e+00
  2.81624056e+00  2.82358935e+00  2.82573526e+00  2.82907812e+00
  2.83451664e+00  2.83734367e+00  2.84267551e+00  2.84717788e+00
  2.85104608e+00  2.85616027e+00  2.85958465e+00  2.87091318e+00
  2.87495451e+00  2.87924974e+00  2.88202234e+00  2.89231783e+00
  2.89977872e+00  2.90104888e+00  2.90643211e+00  2.91531700e+00
  2.92081924e+00  2.92611024e+00  2.93349767e+00  2.93585787e+00
  2.94348579e+00  2.94397804e+00  2.94906003e+00  2.95689321e+00
  2.96596672e+00  2.96841221e+00  2.97094262e+00  2.97399805e+00
  2.98263526e+00  2.98771139e+00  2.99225106e+00  2.99933302e+00
  3.00228787e+00  3.00553270e+00  3.01109732e+00  3.01981749e+00
  3.02890840e+00  3.03266803e+00  3.03859291e+00  3.04723600e+00
  3.05325293e+00  3.06082760e+00  3.07096880e+00  3.07294598e+00
  3.08028008e+00  3.08277191e+00  3.08630276e+00  3.09209772e+00
  3.09690897e+00  3.10096657e+00  3.11093553e+00  3.11108707e+00
  3.11916866e+00  3.12268834e+00  3.12514394e+00  3.12681791e+00
  3.12843637e+00  3.13605650e+00  3.13662375e+00  3.13953341e+00
  3.14266913e+00  3.14887508e+00  3.14961555e+00  3.15374950e+00
  3.15674964e+00  3.16207387e+00  3.16495529e+00  3.17304034e+00
  3.17448572e+00  3.18229598e+00  3.18402970e+00  3.19006827e+00
  3.19685468e+00  3.20159204e+00  3.20230297e+00  3.20481180e+00
  3.21168124e+00  3.21745990e+00  3.21762047e+00  3.22355809e+00
  3.23065540e+00  3.23209147e+00  3.23903900e+00  3.24405134e+00
  3.24661969e+00  3.25352548e+00  3.26091665e+00  3.26331019e+00
  3.26756505e+00  3.27147919e+00  3.27644922e+00  3.28245296e+00
  3.28408396e+00  3.29144792e+00  3.29337457e+00  3.29590740e+00
  3.30088941e+00  3.30491104e+00  3.30920904e+00  3.31167501e+00
  3.31693890e+00  3.31834792e+00  3.32708402e+00  3.33007714e+00
  3.33531120e+00  3.33738814e+00  3.34611095e+00  3.34865553e+00
  3.35610241e+00  3.36292460e+00  3.36538611e+00  3.37342208e+00
  3.37567486e+00  3.37997643e+00  3.38383202e+00  3.38833614e+00
  3.39014457e+00  3.39297491e+00  3.39964345e+00  3.40727841e+00
  3.41191176e+00  3.41261064e+00  3.41772744e+00  3.41874805e+00
  3.42736574e+00  3.43180346e+00  3.43376443e+00  3.44200210e+00
  3.44656460e+00  3.45357490e+00  3.46212562e+00  3.46291812e+00
  3.46471686e+00  3.46864180e+00  3.47268752e+00  3.47963040e+00
  3.48604872e+00  3.49056677e+00  3.49546156e+00  3.49758168e+00
  3.50008373e+00  3.50453099e+00  3.50667750e+00  3.51032891e+00
  3.51791784e+00  3.52011825e+00  3.52302559e+00  3.52639034e+00
  3.53345494e+00  3.53551584e+00  3.55120498e+00  3.55175442e+00
  3.55601835e+00  3.56846880e+00  3.57382969e+00  3.58293373e+00
  3.58349583e+00  3.59343586e+00  3.60367252e+00  3.61207412e+00
  3.61776528e+00  3.61964559e+00  3.62571553e+00  3.63270312e+00
  3.65035819e+00  3.65648649e+00  3.66304749e+00  3.67389136e+00
  3.68367642e+00  3.69372438e+00  3.70359740e+00  3.70744016e+00
  3.72301251e+00  3.72906387e+00  3.73494672e+00  3.74779405e+00
  3.75462743e+00  3.75579047e+00  3.75927481e+00  3.77243407e+00
  3.77595523e+00  3.78704448e+00  3.79723375e+00  3.80341284e+00
  3.80733879e+00  3.82163778e+00  3.82737856e+00  3.83994769e+00
  3.84349069e+00  3.85841304e+00  3.86427198e+00  3.87564903e+00
  3.88031507e+00  3.88990764e+00  3.89426930e+00  3.90935428e+00
  3.91370201e+00  3.92217146e+00  3.92410455e+00  3.93180041e+00
  3.94740869e+00  3.95035687e+00  3.95774583e+00  3.96315646e+00
  3.97094158e+00  3.98130791e+00  3.98760553e+00  3.99613734e+00
  4.00546294e+00  4.00646457e+00  4.01473294e+00  4.01790752e+00
  4.02786322e+00  4.03623565e+00  4.04282895e+00  4.04703965e+00
  4.06015726e+00  4.08062992e+00  4.09090737e+00  4.09621733e+00
  4.10514250e+00  4.11847655e+00  4.12715376e+00  4.13155005e+00
  4.14614400e+00  4.14794047e+00  4.15671006e+00  4.16276591e+00
  4.16585186e+00  4.16935730e+00  4.17572288e+00  4.18318920e+00
  4.18680617e+00  4.19298110e+00  4.19871763e+00  4.20022231e+00
  4.20691758e+00  4.21122069e+00  4.21392424e+00  4.22183225e+00
  4.22906264e+00  4.23004697e+00  4.23950075e+00  4.24480709e+00
  4.25299943e+00  4.25967394e+00  4.27283040e+00  4.27437897e+00
  4.28530704e+00  4.28920518e+00  4.29439416e+00  4.30350570e+00
  4.31330395e+00  4.32371845e+00  4.33118248e+00  4.35042677e+00
  4.35704269e+00  4.36986342e+00  4.38082709e+00  4.39808675e+00
  4.41145864e+00  4.42942301e+00  4.43257786e+00  4.44923092e+00
  4.45518502e+00  4.47246079e+00  4.49526748e+00  4.50342005e+00
  4.50817125e+00  4.51689782e+00  4.53953458e+00  4.55326379e+00
  4.57379841e+00  4.58157287e+00  4.59358764e+00  4.59824845e+00
  4.61124645e+00  4.62164294e+00  4.64404166e+00  4.65394109e+00
  4.66248794e+00  4.67299862e+00  4.68105854e+00  4.68805443e+00
  4.70474955e+00  4.71376779e+00  4.72158162e+00  4.73579686e+00
  4.74642819e+00  4.76011984e+00  4.78704518e+00  4.79112523e+00
  4.79544899e+00  4.81618060e+00  4.82748672e+00  4.83428136e+00
  4.84515002e+00  4.85457988e+00  4.86930236e+00  4.87362621e+00
  4.87670767e+00  4.89048741e+00  4.90439531e+00  4.90598972e+00
  4.93174440e+00  4.93947513e+00  4.94511034e+00  4.96072187e+00
  4.96407623e+00  4.97535187e+00  4.98546095e+00  5.00204134e+00
  5.03447194e+00  5.04530919e+00  5.06258756e+00  5.08975176e+00
  5.09537602e+00  5.10158211e+00  5.13285255e+00  5.13555907e+00
  5.14157336e+00  5.15811585e+00  5.17106778e+00  5.17710755e+00
  5.17813165e+00  5.18972281e+00  5.19446071e+00  5.19791365e+00
  5.22078935e+00  5.25702756e+00  5.26120286e+00  5.26808427e+00
  5.28078868e+00  5.28147441e+00  5.31505493e+00  5.31648355e+00
  5.32292549e+00  5.33837546e+00  5.34762601e+00  5.38500402e+00
  5.38884115e+00  5.39506665e+00  5.40229738e+00  5.41261273e+00
  5.44103686e+00  5.45738489e+00  5.46637025e+00  5.48111556e+00
  5.48437972e+00  5.48668379e+00  5.49508995e+00  5.51402361e+00
  5.53488574e+00  5.54203774e+00  5.57987917e+00  5.60668623e+00
  5.63014665e+00  5.63989227e+00  5.67116126e+00  5.67810866e+00
  5.70922108e+00  5.71907715e+00  5.72614535e+00  5.76041743e+00
  5.78416760e+00  5.79827236e+00  5.82577930e+00  5.90822222e+00
  5.94736175e+00  5.98414668e+00  6.00075170e+00  6.06278237e+00
  6.06991211e+00  6.18329211e+00  6.21471490e+00  6.23561413e+00
  6.28740129e+00  6.29388643e+00  6.36396116e+00  6.38896153e+00
  6.39685808e+00  6.41949060e+00  6.44269580e+00  6.45459254e+00
  6.49448983e+00  6.61729522e+00  6.71342456e+00  6.73371390e+00
  6.79978874e+00  6.82274907e+00  6.88520461e+00  6.90283570e+00
  6.98996513e+00  7.01077326e+00  7.15258381e+00  7.18866954e+00
  7.26963008e+00  7.28505118e+00  2.21790303e+01  2.22046219e+01
  2.22675647e+01  2.25572219e+01  2.26110521e+01  2.26164324e+01
  2.26795769e+01  2.26964853e+01  2.27058000e+01  2.27164287e+01
  2.27364807e+01  2.27545902e+01  2.27586777e+01  2.27848849e+01
  2.27962001e+01  2.28117887e+01  2.29291130e+01  2.29445066e+01
  2.30162246e+01  2.31550045e+01  2.31717312e+01  2.32326957e+01
  2.33280860e+01  2.33905025e+01  2.35647655e+01  2.35961968e+01
  3.26002810e+01  3.27458935e+01  3.32047790e+01  4.40146531e+01
  4.40287674e+01  4.41744598e+01]
nelec by numeric integration = 222.00012674157745
    CPU time for vxc    172.76 sec, wall time      9.41 sec
    CPU time for df vj and vk    707.34 sec, wall time     47.73 sec
E1 = -7592.569702814984  Ecoul = 3526.875932327731  Exc = -193.85649569258695
cycle= 2 E= -1392.25107339715  delta_E= 9.72e-10  |g|= 6.79e-05  |ddm|= 0.00013
    CPU time for cycle= 2    891.46 sec, wall time     57.99 sec
  HOMO = -0.187054859715195  LUMO = -0.0631204581498358
  mo_energy =
[-1.92566734e+01 -1.92320658e+01 -1.91564465e+01 -1.44487575e+01
 -1.44411138e+01 -1.43882513e+01 -1.03091900e+01 -1.03078407e+01
 -1.03035149e+01 -1.02921052e+01 -1.02914547e+01 -1.02812132e+01
 -1.02766431e+01 -1.02657196e+01 -1.02612130e+01 -1.02600886e+01
 -1.02584126e+01 -1.02535187e+01 -1.02529594e+01 -1.02496596e+01
 -1.02494543e+01 -1.02486543e+01 -1.02474776e+01 -1.02462344e+01
 -1.02458138e+01 -1.02444507e+01 -1.02279109e+01 -1.02264357e+01
 -1.02237777e+01 -1.02224004e+01 -1.02164084e+01 -1.02149373e+01
 -1.10847741e+00 -1.08257585e+00 -1.06756655e+00 -1.02262803e+00
 -9.95702184e-01 -9.31792266e-01 -9.01490767e-01 -8.95926167e-01
 -8.68633818e-01 -8.46230662e-01 -8.09903409e-01 -8.00525413e-01
 -7.90343883e-01 -7.83612205e-01 -7.77094439e-01 -7.64874693e-01
 -7.59323900e-01 -7.33254406e-01 -7.11179585e-01 -6.84588107e-01
 -6.64113640e-01 -6.47684051e-01 -6.40729240e-01 -6.34038218e-01
 -6.29917645e-01 -6.18642137e-01 -6.04480272e-01 -5.90230254e-01
 -5.79127196e-01 -5.68405702e-01 -5.54105517e-01 -5.48490059e-01
 -5.43207895e-01 -5.37168388e-01 -5.05184294e-01 -5.01980547e-01
 -4.95787161e-01 -4.88562114e-01 -4.85802481e-01 -4.84252709e-01
 -4.76158463e-01 -4.69936519e-01 -4.65858856e-01 -4.53494486e-01
 -4.48687199e-01 -4.47366709e-01 -4.45708017e-01 -4.44738641e-01
 -4.38955163e-01 -4.29676641e-01 -4.26793066e-01 -4.24686390e-01
 -4.20759019e-01 -4.16576983e-01 -4.14605968e-01 -4.08507270e-01
 -4.06585563e-01 -4.01908049e-01 -3.90504167e-01 -3.79310402e-01
 -3.77328950e-01 -3.69870410e-01 -3.68788662e-01 -3.67204133e-01
 -3.66688704e-01 -3.52190726e-01 -3.38346178e-01 -3.36808202e-01
 -3.32198229e-01 -3.20435575e-01 -2.87238888e-01 -2.85557048e-01
 -2.83492251e-01 -2.75594352e-01 -2.56780475e-01 -2.55176677e-01
 -2.39998524e-01 -2.22576600e-01 -1.87054860e-01 -6.31204581e-02
 -4.23935983e-02 -3.01034428e-02 -2.94719110e-02 -2.50367128e-02
 -1.12619967e-03  1.59179294e-02  2.48683628e-02  2.57687458e-02
  2.93864807e-02  4.37146021e-02  5.12330968e-02  6.09021924e-02
  6.21660448e-02  6.71082674e-02  7.28044781e-02  7.86022887e-02
  8.73488405e-02  9.11986177e-02  9.50915944e-02  9.58079461e-02
  9.99305979e-02  1.02698246e-01  1.05217148e-01  1.10425434e-01
  1.12927613e-01  1.22132398e-01  1.22811205e-01  1.26027766e-01
  1.30702564e-01  1.31945385e-01  1.36607707e-01  1.41425523e-01
  1.44778883e-01  1.51003943e-01  1.54642604e-01  1.56161933e-01
  1.62185766e-01  1.65382602e-01  1.69305952e-01  1.74571080e-01
  1.76474763e-01  1.77688420e-01  1.85882296e-01  1.90459156e-01
  1.96064634e-01  1.97093689e-01  2.00677511e-01  2.02392654e-01
  2.09793655e-01  2.13283401e-01  2.19736548e-01  2.22336703e-01
  2.23252215e-01  2.25086307e-01  2.31659013e-01  2.32266805e-01
  2.35614841e-01  2.37511572e-01  2.38493112e-01  2.41130806e-01
  2.45791471e-01  2.48358797e-01  2.51860539e-01  2.54629299e-01
  2.57306685e-01  2.58162832e-01  2.66181378e-01  2.66806287e-01
  2.70086562e-01  2.76067427e-01  2.78327433e-01  2.81319685e-01
  2.84253139e-01  2.85053273e-01  2.91535738e-01  2.93429394e-01
  2.95946596e-01  2.98995001e-01  3.01975716e-01  3.07789248e-01
  3.08989687e-01  3.12133693e-01  3.15437185e-01  3.16122963e-01
  3.28171850e-01  3.29659514e-01  3.34254794e-01  3.35776097e-01
  3.38984487e-01  3.42256008e-01  3.44751762e-01  3.48010384e-01
  3.50215077e-01  3.54595724e-01  3.55177565e-01  3.57748564e-01
  3.60936176e-01  3.63226828e-01  3.64326397e-01  3.66998890e-01
  3.68364533e-01  3.69739026e-01  3.72428655e-01  3.72911911e-01
  3.78903400e-01  3.82991262e-01  3.87055311e-01  3.90011860e-01
  3.94386157e-01  3.95503810e-01  3.99429226e-01  4.02740612e-01
  4.05167673e-01  4.07554899e-01  4.09333315e-01  4.12607052e-01
  4.17528389e-01  4.20356502e-01  4.24281403e-01  4.27917451e-01
  4.33711537e-01  4.33935545e-01  4.36190153e-01  4.40418854e-01
  4.44142576e-01  4.46167980e-01  4.52987197e-01  4.53237008e-01
  4.55794344e-01  4.58068871e-01  4.60834527e-01  4.63866314e-01
  4.68266261e-01  4.70679903e-01  4.72562992e-01  4.78430242e-01
  4.81854802e-01  4.83161099e-01  4.88715615e-01  4.89964070e-01
  4.92128743e-01  4.96194051e-01  4.99149150e-01  5.00254897e-01
  5.01621725e-01  5.05762560e-01  5.09501916e-01  5.13906736e-01
  5.21693180e-01  5.25227862e-01  5.30623754e-01  5.37143980e-01
  5.39588420e-01  5.44670601e-01  5.48461829e-01  5.53932347e-01
  5.59747331e-01  5.60476074e-01  5.65737848e-01  5.68149992e-01
  5.75580887e-01  5.79736597e-01  5.83868310e-01  5.84723028e-01
  5.89405379e-01  5.91767778e-01  5.97371752e-01  6.02840813e-01
  6.08862376e-01  6.11167712e-01  6.16175261e-01  6.25295483e-01
  6.28843671e-01  6.32017078e-01  6.35699000e-01  6.39581792e-01
  6.41278168e-01  6.44676929e-01  6.51451528e-01  6.51981968e-01
  6.58365668e-01  6.60468519e-01  6.65720613e-01  6.67643813e-01
  6.74786952e-01  6.79946546e-01  6.82871490e-01  6.84845937e-01
  6.87111586e-01  6.91845110e-01  6.93945757e-01  6.97824487e-01
  7.01793882e-01  7.05293208e-01  7.06812205e-01  7.10074369e-01
  7.14639373e-01  7.21766792e-01  7.24811660e-01  7.28368654e-01
  7.32656285e-01  7.34429628e-01  7.38496751e-01  7.42038425e-01
  7.44880403e-01  7.49592017e-01  7.53018201e-01  7.57680292e-01
  7.63034615e-01  7.66424136e-01  7.69030953e-01  7.73075330e-01
  7.81799603e-01  7.83442622e-01  7.86842663e-01  7.94376217e-01
  7.99260256e-01  8.01246358e-01  8.09311069e-01  8.09560023e-01
  8.17603301e-01  8.21801800e-01  8.25460027e-01  8.29655861e-01
  8.32911374e-01  8.36720004e-01  8.40659831e-01  8.48115674e-01
  8.49084450e-01  8.58979021e-01  8.61141157e-01  8.66729364e-01
  8.69253824e-01  8.76457266e-01  8.78930893e-01  8.81454408e-01
  8.88381574e-01  8.90905846e-01  8.98080739e-01  9.00516468e-01
  9.08402255e-01  9.12822762e-01  9.14609737e-01  9.23069313e-01
  9.25704750e-01  9.34091756e-01  9.37079500e-01  9.42593284e-01
  9.49553710e-01  9.60420584e-01  9.69831115e-01  9.75549040e-01
  9.79701147e-01  9.89267979e-01  9.95444271e-01  9.98838276e-01
  1.00792831e+00  1.01563335e+00  1.02328397e+00  1.02788576e+00
  1.03297134e+00  1.03708760e+00  1.04369914e+00  1.04670081e+00
  1.05077346e+00  1.05138523e+00  1.05814170e+00  1.06553875e+00
  1.06918450e+00  1.07382559e+00  1.07546320e+00  1.08450005e+00
  1.09074129e+00  1.09378861e+00  1.10494718e+00  1.11139986e+00
  1.12020873e+00  1.12434713e+00  1.12874436e+00  1.13719879e+00
  1.14445280e+00  1.15368606e+00  1.15743932e+00  1.17075250e+00
  1.17372649e+00  1.18373089e+00  1.18779837e+00  1.19570868e+00
  1.19964308e+00  1.20214376e+00  1.20762775e+00  1.21167049e+00
  1.21462761e+00  1.21912441e+00  1.22001393e+00  1.22760885e+00
  1.23341524e+00  1.23641079e+00  1.24374158e+00  1.24691763e+00
  1.25055431e+00  1.25746247e+00  1.26072781e+00  1.26807391e+00
  1.27463257e+00  1.27790231e+00  1.27929728e+00  1.28417615e+00
  1.29362609e+00  1.29495840e+00  1.30928260e+00  1.31166640e+00
  1.31388732e+00  1.32395802e+00  1.32858527e+00  1.33187504e+00
  1.33445891e+00  1.34808887e+00  1.34925092e+00  1.35488395e+00
  1.35735100e+00  1.36208819e+00  1.37858590e+00  1.38684661e+00
  1.38888129e+00  1.39273827e+00  1.40079879e+00  1.40712217e+00
  1.41904791e+00  1.42509402e+00  1.42961146e+00  1.43710895e+00
  1.44049753e+00  1.44397591e+00  1.44725040e+00  1.45544225e+00
  1.45739875e+00  1.46177780e+00  1.46571883e+00  1.46823022e+00
  1.47506051e+00  1.48290742e+00  1.48659458e+00  1.49833118e+00
  1.50475443e+00  1.50519648e+00  1.50793911e+00  1.51111985e+00
  1.51449411e+00  1.51632159e+00  1.52345080e+00  1.53708148e+00
  1.53901478e+00  1.54546754e+00  1.54921535e+00  1.56016045e+00
  1.56381369e+00  1.56599135e+00  1.57040599e+00  1.57555857e+00
  1.58068801e+00  1.59402110e+00  1.59585839e+00  1.60224511e+00
  1.60436621e+00  1.61136829e+00  1.61363606e+00  1.61615931e+00
  1.62191904e+00  1.62763553e+00  1.63210456e+00  1.63663624e+00
  1.64249448e+00  1.64903034e+00  1.65234286e+00  1.65549338e+00
  1.66092425e+00  1.66378631e+00  1.66953784e+00  1.67589348e+00
  1.67675586e+00  1.68087513e+00  1.68715634e+00  1.69096097e+00
  1.69600483e+00  1.69938792e+00  1.70193122e+00  1.70583642e+00
  1.71192221e+00  1.71413002e+00  1.71697692e+00  1.72621887e+00
  1.72780165e+00  1.73103347e+00  1.73917549e+00  1.74246063e+00
  1.74532354e+00  1.75330233e+00  1.75459397e+00  1.76106354e+00
  1.76619503e+00  1.77225555e+00  1.77782068e+00  1.78492617e+00
  1.79119049e+00  1.80273406e+00  1.81587039e+00  1.82276897e+00
  1.82537391e+00  1.83066279e+00  1.83907872e+00  1.84111624e+00
  1.84735990e+00  1.85448205e+00  1.85883302e+00  1.86432759e+00
  1.87621608e+00  1.88070347e+00  1.89182232e+00  1.89377048e+00
  1.89993214e+00  1.90047746e+00  1.90871151e+00  1.91520208e+00
  1.92124084e+00  1.93439347e+00  1.93948574e+00  1.94391090e+00
  1.94943426e+00  1.95290323e+00  1.95727286e+00  1.97552619e+00
  1.97665183e+00  1.98735593e+00  1.99448791e+00  2.00017212e+00
  2.00334148e+00  2.01718029e+00  2.02394827e+00  2.02675393e+00
  2.03165595e+00  2.03406479e+00  2.04251332e+00  2.04670961e+00
  2.05486902e+00  2.07107751e+00  2.07899036e+00  2.08520154e+00
  2.08942573e+00  2.09956353e+00  2.10953589e+00  2.11320387e+00
  2.11973120e+00  2.12114483e+00  2.12857946e+00  2.13125044e+00
  2.13662803e+00  2.14047021e+00  2.14699984e+00  2.14781650e+00
  2.15495040e+00  2.15945009e+00  2.16384622e+00  2.16619276e+00
  2.16813176e+00  2.17943340e+00  2.18298705e+00  2.19036495e+00
  2.20412962e+00  2.20606652e+00  2.21075999e+00  2.22122658e+00
  2.22383199e+00  2.23998905e+00  2.24412997e+00  2.24798356e+00
  2.25441458e+00  2.25973444e+00  2.26268568e+00  2.27520807e+00
  2.27968062e+00  2.28795468e+00  2.30024831e+00  2.30452457e+00
  2.31100414e+00  2.31727690e+00  2.31902406e+00  2.33136670e+00
  2.33631854e+00  2.34257415e+00  2.36313002e+00  2.37193500e+00
  2.37902528e+00  2.39121506e+00  2.39510398e+00  2.40629092e+00
  2.40984278e+00  2.42029547e+00  2.42153691e+00  2.43143892e+00
  2.43798249e+00  2.44510185e+00  2.44693148e+00  2.46002445e+00
  2.46546587e+00  2.47579611e+00  2.48230679e+00  2.48841013e+00
  2.49963405e+00  2.50604531e+00  2.51571200e+00  2.52325981e+00
  2.52871044e+00  2.53405914e+00  2.53802907e+00  2.54942419e+00
  2.55045086e+00  2.55640410e+00  2.55994627e+00  2.56951514e+00
  2.57214939e+00  2.57981900e+00  2.58209233e+00  2.58568116e+00
  2.59036521e+00  2.59987398e+00  2.60296797e+00  2.60696292e+00
  2.61181371e+00  2.62336320e+00  2.63008608e+00  2.63360181e+00
  2.63503704e+00  2.64190864e+00  2.64511587e+00  2.64641014e+00
  2.65181928e+00  2.65304220e+00  2.65599555e+00  2.65924753e+00
  2.66402224e+00  2.66933568e+00  2.67041540e+00  2.67923050e+00
  2.68571544e+00  2.68819795e+00  2.69565603e+00  2.69655965e+00
  2.70174548e+00  2.70360350e+00  2.70826648e+00  2.70878536e+00
  2.71016668e+00  2.72257983e+00  2.72832549e+00  2.73475290e+00
  2.73864508e+00  2.75194212e+00  2.75718653e+00  2.76158136e+00
  2.76421210e+00  2.77123143e+00  2.77543405e+00  2.77809270e+00
  2.78626649e+00  2.79012409e+00  2.79204921e+00  2.79805018e+00
  2.80476577e+00  2.80642458e+00  2.81130417e+00  2.81431961e+00
  2.81624062e+00  2.82358912e+00  2.82573494e+00  2.82907847e+00
  2.83451731e+00  2.83734383e+00  2.84267460e+00  2.84717844e+00
  2.85104538e+00  2.85616050e+00  2.85958533e+00  2.87091344e+00
  2.87495521e+00  2.87924966e+00  2.88202224e+00  2.89231775e+00
  2.89977947e+00  2.90104858e+00  2.90643285e+00  2.91531658e+00
  2.92081996e+00  2.92611085e+00  2.93349711e+00  2.93585800e+00
  2.94348607e+00  2.94397878e+00  2.94905966e+00  2.95689309e+00
  2.96596673e+00  2.96841276e+00  2.97094297e+00  2.97399835e+00
  2.98263577e+00  2.98771130e+00  2.99225012e+00  2.99933242e+00
  3.00228781e+00  3.00553274e+00  3.01109759e+00  3.01981764e+00
  3.02890845e+00  3.03266811e+00  3.03859316e+00  3.04723608e+00
  3.05325311e+00  3.06082792e+00  3.07096862e+00  3.07294640e+00
  3.08028007e+00  3.08277221e+00  3.08630215e+00  3.09209699e+00
  3.09690818e+00  3.10096606e+00  3.11093507e+00  3.11108759e+00
  3.11916840e+00  3.12268885e+00  3.12514368e+00  3.12681740e+00
  3.12843687e+00  3.13605673e+00  3.13662390e+00  3.13953394e+00
  3.14266856e+00  3.14887501e+00  3.14961523e+00  3.15374956e+00
  3.15674987e+00  3.16207389e+00  3.16495578e+00  3.17304029e+00
  3.17448579e+00  3.18229631e+00  3.18402986e+00  3.19006798e+00
  3.19685461e+00  3.20159232e+00  3.20230264e+00  3.20481207e+00
  3.21168128e+00  3.21745970e+00  3.21762082e+00  3.22355824e+00
  3.23065501e+00  3.23209168e+00  3.23903963e+00  3.24405157e+00
  3.24661960e+00  3.25352610e+00  3.26091714e+00  3.26331062e+00
  3.26756513e+00  3.27147919e+00  3.27644977e+00  3.28245346e+00
  3.28408448e+00  3.29144847e+00  3.29337453e+00  3.29590739e+00
  3.30088936e+00  3.30491122e+00  3.30920888e+00  3.31167545e+00
  3.31693849e+00  3.31834827e+00  3.32708428e+00  3.33007742e+00
  3.33531178e+00  3.33738781e+00  3.34611062e+00  3.34865580e+00
  3.35610231e+00  3.36292454e+00  3.36538694e+00  3.37342139e+00
  3.37567495e+00  3.37997628e+00  3.38383212e+00  3.38833678e+00
  3.39014495e+00  3.39297551e+00  3.39964372e+00  3.40727732e+00
  3.41191129e+00  3.41261025e+00  3.41772753e+00  3.41874854e+00
  3.42736583e+00  3.43180308e+00  3.43376544e+00  3.44200290e+00
  3.44656506e+00  3.45357499e+00  3.46212586e+00  3.46291882e+00
  3.46471687e+00  3.46864132e+00  3.47268771e+00  3.47963000e+00
  3.48604884e+00  3.49056665e+00  3.49546154e+00  3.49758205e+00
  3.50008360e+00  3.50453100e+00  3.50667720e+00  3.51032873e+00
  3.51791848e+00  3.52011827e+00  3.52302570e+00  3.52638953e+00
  3.53345385e+00  3.53551602e+00  3.55120536e+00  3.55175458e+00
  3.55601724e+00  3.56846870e+00  3.57382906e+00  3.58293371e+00
  3.58349618e+00  3.59343560e+00  3.60367355e+00  3.61207456e+00
  3.61776560e+00  3.61964491e+00  3.62571564e+00  3.63270328e+00
  3.65035743e+00  3.65648592e+00  3.66304750e+00  3.67389205e+00
  3.68367556e+00  3.69372440e+00  3.70359703e+00  3.70743965e+00
  3.72301311e+00  3.72906399e+00  3.73494673e+00  3.74779425e+00
  3.75462786e+00  3.75579074e+00  3.75927502e+00  3.77243383e+00
  3.77595523e+00  3.78704427e+00  3.79723280e+00  3.80341210e+00
  3.80733824e+00  3.82163751e+00  3.82737888e+00  3.83994749e+00
  3.84348941e+00  3.85841350e+00  3.86427123e+00  3.87564961e+00
  3.88031388e+00  3.88990753e+00  3.89426968e+00  3.90935454e+00
  3.91370278e+00  3.92217140e+00  3.92410469e+00  3.93180063e+00
  3.94740906e+00  3.95035654e+00  3.95774463e+00  3.96315628e+00
  3.97094154e+00  3.98130663e+00  3.98760557e+00  3.99613785e+00
  4.00546276e+00  4.00646497e+00  4.01473236e+00  4.01790752e+00
  4.02786286e+00  4.03623519e+00  4.04282943e+00  4.04703963e+00
  4.06015688e+00  4.08063039e+00  4.09090658e+00  4.09621732e+00
  4.10514247e+00  4.11847603e+00  4.12715411e+00  4.13155055e+00
  4.14614448e+00  4.14794003e+00  4.15671064e+00  4.16276679e+00
  4.16585256e+00  4.16935776e+00  4.17572222e+00  4.18318882e+00
  4.18680627e+00  4.19298198e+00  4.19871783e+00  4.20022224e+00
  4.20691708e+00  4.21122129e+00  4.21392456e+00  4.22183313e+00
  4.22906315e+00  4.23004643e+00  4.23950191e+00  4.24480779e+00
  4.25299858e+00  4.25967401e+00  4.27283117e+00  4.27437868e+00
  4.28530764e+00  4.28920465e+00  4.29439508e+00  4.30350617e+00
  4.31330460e+00  4.32371991e+00  4.33118311e+00  4.35042710e+00
  4.35704222e+00  4.36986443e+00  4.38082688e+00  4.39808802e+00
  4.41145782e+00  4.42942367e+00  4.43257710e+00  4.44923127e+00
  4.45518322e+00  4.47246159e+00  4.49526728e+00  4.50342036e+00
  4.50816984e+00  4.51689823e+00  4.53953505e+00  4.55326368e+00
  4.57379940e+00  4.58157303e+00  4.59358834e+00  4.59824782e+00
  4.61124722e+00  4.62164272e+00  4.64404239e+00  4.65394168e+00
  4.66248747e+00  4.67299921e+00  4.68105784e+00  4.68805315e+00
  4.70475020e+00  4.71376852e+00  4.72158236e+00  4.73579580e+00
  4.74642739e+00  4.76012046e+00  4.78704515e+00  4.79112396e+00
  4.79544901e+00  4.81618028e+00  4.82748764e+00  4.83428202e+00
  4.84514899e+00  4.85458152e+00  4.86930284e+00  4.87362594e+00
  4.87670747e+00  4.89048518e+00  4.90439528e+00  4.90598963e+00
  4.93174530e+00  4.93947583e+00  4.94510966e+00  4.96072219e+00
  4.96407554e+00  4.97535114e+00  4.98546094e+00  5.00204060e+00
  5.03447189e+00  5.04531031e+00  5.06258889e+00  5.08975269e+00
  5.09537600e+00  5.10158246e+00  5.13285205e+00  5.13555987e+00
  5.14157322e+00  5.15811493e+00  5.17106824e+00  5.17710722e+00
  5.17813143e+00  5.18972282e+00  5.19445968e+00  5.19791369e+00
  5.22078977e+00  5.25702776e+00  5.26120290e+00  5.26808469e+00
  5.28078930e+00  5.28147502e+00  5.31505426e+00  5.31648143e+00
  5.32292585e+00  5.33837598e+00  5.34762765e+00  5.38500331e+00
  5.38884103e+00  5.39506547e+00  5.40229849e+00  5.41261169e+00
  5.44103751e+00  5.45738561e+00  5.46637047e+00  5.48111651e+00
  5.48438029e+00  5.48668302e+00  5.49509046e+00  5.51402445e+00
  5.53488410e+00  5.54203635e+00  5.57987915e+00  5.60668583e+00
  5.63014695e+00  5.63989179e+00  5.67116158e+00  5.67810797e+00
  5.70921937e+00  5.71907693e+00  5.72614529e+00  5.76042057e+00
  5.78416795e+00  5.79827313e+00  5.82578044e+00  5.90822288e+00
  5.94736107e+00  5.98414696e+00  6.00075240e+00  6.06278089e+00
  6.06991143e+00  6.18329367e+00  6.21471539e+00  6.23561339e+00
  6.28740164e+00  6.29388711e+00  6.36396138e+00  6.38896199e+00
  6.39685870e+00  6.41949057e+00  6.44269630e+00  6.45459508e+00
  6.49449022e+00  6.61729716e+00  6.71342456e+00  6.73371438e+00
  6.79978876e+00  6.82274956e+00  6.88520670e+00  6.90283587e+00
  6.98996518e+00  7.01077379e+00  7.15258576e+00  7.18867072e+00
  7.26963020e+00  7.28505170e+00  2.21790307e+01  2.22046213e+01
  2.22675659e+01  2.25572228e+01  2.26110516e+01  2.26164295e+01
  2.26795785e+01  2.26964868e+01  2.27058014e+01  2.27164308e+01
  2.27364816e+01  2.27545908e+01  2.27586759e+01  2.27848834e+01
  2.27962015e+01  2.28117896e+01  2.29291139e+01  2.29445054e+01
  2.30162212e+01  2.31550063e+01  2.31717338e+01  2.32326989e+01
  2.33280850e+01  2.33905042e+01  2.35647601e+01  2.35961929e+01
  3.26002744e+01  3.27458997e+01  3.32047784e+01  4.40146527e+01
  4.40287677e+01  4.41744653e+01]
nelec by numeric integration = 222.00012674060295
    CPU time for vxc    173.66 sec, wall time      9.70 sec
    CPU time for df vj and vk    706.94 sec, wall time     47.69 sec
E1 = -7592.569633352745  Ecoul = 3526.8758559461744  Exc = -193.85648877443023
cycle= 3 E= -1392.25107339832  delta_E= -1.16e-09  |g|= 8.91e-06  |ddm|= 9.47e-05
    CPU time for cycle= 3    888.53 sec, wall time     58.06 sec
  HOMO = -0.187054789888233  LUMO = -0.0631205253451326
  mo_energy =
[-1.92566736e+01 -1.92320661e+01 -1.91564443e+01 -1.44487583e+01
 -1.44411138e+01 -1.43882520e+01 -1.03091896e+01 -1.03078397e+01
 -1.03035158e+01 -1.02921061e+01 -1.02914551e+01 -1.02812130e+01
 -1.02766432e+01 -1.02657190e+01 -1.02612131e+01 -1.02600892e+01
 -1.02584128e+01 -1.02535189e+01 -1.02529597e+01 -1.02496595e+01
 -1.02494540e+01 -1.02486543e+01 -1.02474778e+01 -1.02462345e+01
 -1.02458140e+01 -1.02444504e+01 -1.02279106e+01 -1.02264356e+01
 -1.02237778e+01 -1.02224002e+01 -1.02164079e+01 -1.02149369e+01
 -1.10847736e+00 -1.08257590e+00 -1.06756628e+00 -1.02262776e+00
 -9.95702203e-01 -9.31792350e-01 -9.01490912e-01 -8.95926280e-01
 -8.68633659e-01 -8.46230928e-01 -8.09903602e-01 -8.00525322e-01
 -7.90343897e-01 -7.83612296e-01 -7.77094521e-01 -7.64874790e-01
 -7.59323737e-01 -7.33254458e-01 -7.11179586e-01 -6.84588229e-01
 -6.64113751e-01 -6.47684022e-01 -6.40729345e-01 -6.34038343e-01
 -6.29917567e-01 -6.18642256e-01 -6.04480254e-01 -5.90230329e-01
 -5.79127199e-01 -5.68405906e-01 -5.54105505e-01 -5.48490012e-01
 -5.43207997e-01 -5.37168549e-01 -5.05184401e-01 -5.01980700e-01
 -4.95787135e-01 -4.88562077e-01 -4.85802580e-01 -4.84252766e-01
 -4.76158570e-01 -4.69936439e-01 -4.65858942e-01 -4.53494516e-01
 -4.48687264e-01 -4.47366526e-01 -4.45708024e-01 -4.44738659e-01
 -4.38955125e-01 -4.29676580e-01 -4.26792990e-01 -4.24686376e-01
 -4.20758886e-01 -4.16577026e-01 -4.14605919e-01 -4.08507157e-01
 -4.06585547e-01 -4.01908166e-01 -3.90504298e-01 -3.79310387e-01
 -3.77328898e-01 -3.69870399e-01 -3.68788715e-01 -3.67204176e-01
 -3.66688787e-01 -3.52190640e-01 -3.38346035e-01 -3.36808118e-01
 -3.32197971e-01 -3.20435510e-01 -2.87238932e-01 -2.85557160e-01
 -2.83492350e-01 -2.75594451e-01 -2.56780255e-01 -2.55176050e-01
 -2.39998638e-01 -2.22576492e-01 -1.87054790e-01 -6.31205253e-02
 -4.23937348e-02 -3.01035333e-02 -2.94719837e-02 -2.50368230e-02
 -1.12604977e-03  1.59180705e-02  2.48683084e-02  2.57686620e-02
  2.93863401e-02  4.37146037e-02  5.12330066e-02  6.09021303e-02
  6.21660097e-02  6.71081187e-02  7.28044771e-02  7.86022519e-02
  8.73488781e-02  9.11987535e-02  9.50915964e-02  9.58079282e-02
  9.99306195e-02  1.02698190e-01  1.05217145e-01  1.10425390e-01
  1.12927497e-01  1.22132293e-01  1.22811259e-01  1.26027664e-01
  1.30702539e-01  1.31945296e-01  1.36607668e-01  1.41425540e-01
  1.44778819e-01  1.51003955e-01  1.54642583e-01  1.56161882e-01
  1.62185816e-01  1.65382549e-01  1.69306008e-01  1.74571052e-01
  1.76474666e-01  1.77688360e-01  1.85882334e-01  1.90459195e-01
  1.96064635e-01  1.97093589e-01  2.00677414e-01  2.02392481e-01
  2.09793573e-01  2.13283278e-01  2.19736539e-01  2.22336659e-01
  2.23252131e-01  2.25086268e-01  2.31658944e-01  2.32266754e-01
  2.35614833e-01  2.37511570e-01  2.38493063e-01  2.41130783e-01
  2.45791507e-01  2.48358752e-01  2.51860494e-01  2.54629324e-01
  2.57306745e-01  2.58162884e-01  2.66181356e-01  2.66806241e-01
  2.70086474e-01  2.76067419e-01  2.78327415e-01  2.81319642e-01
  2.84253098e-01  2.85053195e-01  2.91535737e-01  2.93429337e-01
  2.95946532e-01  2.98994926e-01  3.01975750e-01  3.07789304e-01
  3.08989773e-01  3.12133707e-01  3.15437205e-01  3.16122949e-01
  3.28171844e-01  3.29659463e-01  3.34254804e-01  3.35776052e-01
  3.38984441e-01  3.42255908e-01  3.44751764e-01  3.48010439e-01
  3.50215005e-01  3.54595720e-01  3.55177564e-01  3.57748503e-01
  3.60936152e-01  3.63226847e-01  3.64326432e-01  3.66998891e-01
  3.68364528e-01  3.69739060e-01  3.72428661e-01  3.72911959e-01
  3.78903382e-01  3.82991246e-01  3.87055286e-01  3.90011837e-01
  3.94386225e-01  3.95503749e-01  3.99429319e-01  4.02740575e-01
  4.05167645e-01  4.07554877e-01  4.09333244e-01  4.12607025e-01
  4.17528366e-01  4.20356425e-01  4.24281369e-01  4.27917422e-01
  4.33711466e-01  4.33935530e-01  4.36190119e-01  4.40418879e-01
  4.44142558e-01  4.46167968e-01  4.52987185e-01  4.53237044e-01
  4.55794409e-01  4.58068797e-01  4.60834527e-01  4.63866304e-01
  4.68266226e-01  4.70679829e-01  4.72562989e-01  4.78430223e-01
  4.81854775e-01  4.83161104e-01  4.88715579e-01  4.89964021e-01
  4.92128662e-01  4.96193998e-01  4.99149202e-01  5.00254811e-01
  5.01621711e-01  5.05762544e-01  5.09501913e-01  5.13906692e-01
  5.21693139e-01  5.25227800e-01  5.30623831e-01  5.37143926e-01
  5.39588407e-01  5.44670587e-01  5.48461846e-01  5.53932328e-01
  5.59747359e-01  5.60476061e-01  5.65737794e-01  5.68149950e-01
  5.75580889e-01  5.79736597e-01  5.83868282e-01  5.84723043e-01
  5.89405325e-01  5.91767721e-01  5.97371767e-01  6.02840841e-01
  6.08862334e-01  6.11167772e-01  6.16175189e-01  6.25295439e-01
  6.28843665e-01  6.32017081e-01  6.35698983e-01  6.39581730e-01
  6.41278108e-01  6.44676897e-01  6.51451480e-01  6.51981962e-01
  6.58365599e-01  6.60468482e-01  6.65720635e-01  6.67643778e-01
  6.74786879e-01  6.79946464e-01  6.82871504e-01  6.84845830e-01
  6.87111531e-01  6.91845001e-01  6.93945677e-01  6.97824436e-01
  7.01793815e-01  7.05293227e-01  7.06812169e-01  7.10074311e-01
  7.14639326e-01  7.21766707e-01  7.24811692e-01  7.28368603e-01
  7.32656308e-01  7.34429641e-01  7.38496795e-01  7.42038405e-01
  7.44880404e-01  7.49592026e-01  7.53018208e-01  7.57680261e-01
  7.63034566e-01  7.66424106e-01  7.69030918e-01  7.73075326e-01
  7.81799601e-01  7.83442630e-01  7.86842622e-01  7.94376192e-01
  7.99260255e-01  8.01246247e-01  8.09311021e-01  8.09559935e-01
  8.17603335e-01  8.21801777e-01  8.25460007e-01  8.29655885e-01
  8.32911405e-01  8.36719906e-01  8.40659914e-01  8.48115663e-01
  8.49084471e-01  8.58979111e-01  8.61141146e-01  8.66729320e-01
  8.69253801e-01  8.76457259e-01  8.78930899e-01  8.81454336e-01
  8.88381536e-01  8.90905858e-01  8.98080757e-01  9.00516494e-01
  9.08402211e-01  9.12822763e-01  9.14609752e-01  9.23069318e-01
  9.25704758e-01  9.34091675e-01  9.37079486e-01  9.42593249e-01
  9.49553609e-01  9.60420509e-01  9.69831098e-01  9.75549012e-01
  9.79701135e-01  9.89267931e-01  9.95444262e-01  9.98838335e-01
  1.00792825e+00  1.01563335e+00  1.02328401e+00  1.02788569e+00
  1.03297142e+00  1.03708754e+00  1.04369927e+00  1.04670079e+00
  1.05077337e+00  1.05138522e+00  1.05814167e+00  1.06553873e+00
  1.06918455e+00  1.07382560e+00  1.07546324e+00  1.08449999e+00
  1.09074130e+00  1.09378859e+00  1.10494721e+00  1.11139981e+00
  1.12020868e+00  1.12434721e+00  1.12874437e+00  1.13719872e+00
  1.14445279e+00  1.15368604e+00  1.15743935e+00  1.17075248e+00
  1.17372650e+00  1.18373081e+00  1.18779830e+00  1.19570866e+00
  1.19964304e+00  1.20214370e+00  1.20762773e+00  1.21167048e+00
  1.21462757e+00  1.21912436e+00  1.22001387e+00  1.22760879e+00
  1.23341517e+00  1.23641082e+00  1.24374155e+00  1.24691762e+00
  1.25055428e+00  1.25746257e+00  1.26072783e+00  1.26807398e+00
  1.27463251e+00  1.27790226e+00  1.27929721e+00  1.28417614e+00
  1.29362610e+00  1.29495832e+00  1.30928262e+00  1.31166631e+00
  1.31388731e+00  1.32395797e+00  1.32858524e+00  1.33187504e+00
  1.33445897e+00  1.34808883e+00  1.34925099e+00  1.35488384e+00
  1.35735089e+00  1.36208814e+00  1.37858579e+00  1.38684663e+00
  1.38888126e+00  1.39273826e+00  1.40079875e+00  1.40712213e+00
  1.41904787e+00  1.42509402e+00  1.42961145e+00  1.43710887e+00
  1.44049755e+00  1.44397584e+00  1.44725035e+00  1.45544219e+00
  1.45739871e+00  1.46177774e+00  1.46571881e+00  1.46823025e+00
  1.47506045e+00  1.48290748e+00  1.48659450e+00  1.49833117e+00
  1.50475441e+00  1.50519650e+00  1.50793912e+00  1.51111979e+00
  1.51449407e+00  1.51632157e+00  1.52345080e+00  1.53708157e+00
  1.53901474e+00  1.54546742e+00  1.54921532e+00  1.56016043e+00
  1.56381366e+00  1.56599126e+00  1.57040599e+00  1.57555848e+00
  1.58068798e+00  1.59402109e+00  1.59585833e+00  1.60224510e+00
  1.60436617e+00  1.61136831e+00  1.61363601e+00  1.61615919e+00
  1.62191900e+00  1.62763553e+00  1.63210448e+00  1.63663635e+00
  1.64249447e+00  1.64903031e+00  1.65234289e+00  1.65549343e+00
  1.66092424e+00  1.66378637e+00  1.66953783e+00  1.67589350e+00
  1.67675587e+00  1.68087509e+00  1.68715630e+00  1.69096088e+00
  1.69600473e+00  1.69938784e+00  1.70193113e+00  1.70583651e+00
  1.71192223e+00  1.71413007e+00  1.71697684e+00  1.72621883e+00
  1.72780176e+00  1.73103338e+00  1.73917559e+00  1.74246059e+00
  1.74532352e+00  1.75330231e+00  1.75459398e+00  1.76106348e+00
  1.76619513e+00  1.77225566e+00  1.77782065e+00  1.78492618e+00
  1.79119041e+00  1.80273411e+00  1.81587036e+00  1.82276884e+00
  1.82537389e+00  1.83066281e+00  1.83907865e+00  1.84111620e+00
  1.84735984e+00  1.85448203e+00  1.85883290e+00  1.86432770e+00
  1.87621596e+00  1.88070346e+00  1.89182224e+00  1.89377048e+00
  1.89993212e+00  1.90047747e+00  1.90871149e+00  1.91520204e+00
  1.92124090e+00  1.93439354e+00  1.93948564e+00  1.94391079e+00
  1.94943418e+00  1.95290332e+00  1.95727276e+00  1.97552605e+00
  1.97665178e+00  1.98735598e+00  1.99448787e+00  2.00017206e+00
[...]
  1.71192228e+00  1.71413014e+00  1.71697688e+00  1.72621889e+00
  1.72780179e+00  1.73103345e+00  1.73917564e+00  1.74246063e+00
  1.74532358e+00  1.75330235e+00  1.75459403e+00  1.76106353e+00
  1.76619516e+00  1.77225572e+00  1.77782071e+00  1.78492623e+00
  1.79119047e+00  1.80273415e+00  1.81587043e+00  1.82276891e+00
  1.82537392e+00  1.83066284e+00  1.83907870e+00  1.84111623e+00
  1.84735989e+00  1.85448209e+00  1.85883298e+00  1.86432773e+00
  1.87621601e+00  1.88070351e+00  1.89182228e+00  1.89377053e+00
  1.89993216e+00  1.90047752e+00  1.90871154e+00  1.91520209e+00
  1.92124093e+00  1.93439358e+00  1.93948570e+00  1.94391084e+00
  1.94943422e+00  1.95290335e+00  1.95727279e+00  1.97552610e+00
  1.97665184e+00  1.98735601e+00  1.99448791e+00  2.00017211e+00
  2.00334150e+00  2.01718028e+00  2.02394837e+00  2.02675388e+00
  2.03165606e+00  2.03406483e+00  2.04251340e+00  2.04670962e+00
  2.05486912e+00  2.07107746e+00  2.07899034e+00  2.08520152e+00
  2.08942568e+00  2.09956352e+00  2.10953607e+00  2.11320408e+00
  2.11973123e+00  2.12114485e+00  2.12857949e+00  2.13125037e+00
  2.13662813e+00  2.14047024e+00  2.14699981e+00  2.14781658e+00
  2.15495043e+00  2.15945006e+00  2.16384626e+00  2.16619284e+00
  2.16813169e+00  2.17943342e+00  2.18298714e+00  2.19036497e+00
  2.20412959e+00  2.20606662e+00  2.21076012e+00  2.22122653e+00
  2.22383191e+00  2.23998903e+00  2.24412994e+00  2.24798373e+00
  2.25441457e+00  2.25973440e+00  2.26268573e+00  2.27520807e+00
  2.27968063e+00  2.28795491e+00  2.30024826e+00  2.30452459e+00
  2.31100417e+00  2.31727699e+00  2.31902411e+00  2.33136674e+00
  2.33631863e+00  2.34257409e+00  2.36313012e+00  2.37193515e+00
  2.37902528e+00  2.39121519e+00  2.39510397e+00  2.40629080e+00
  2.40984278e+00  2.42029560e+00  2.42153692e+00  2.43143898e+00
  2.43798247e+00  2.44510184e+00  2.44693160e+00  2.46002443e+00
  2.46546588e+00  2.47579622e+00  2.48230675e+00  2.48841016e+00
  2.49963403e+00  2.50604521e+00  2.51571201e+00  2.52325981e+00
  2.52871054e+00  2.53405915e+00  2.53802903e+00  2.54942424e+00
  2.55045088e+00  2.55640408e+00  2.55994637e+00  2.56951512e+00
  2.57214942e+00  2.57981912e+00  2.58209232e+00  2.58568121e+00
  2.59036516e+00  2.59987399e+00  2.60296797e+00  2.60696299e+00
  2.61181369e+00  2.62336319e+00  2.63008612e+00  2.63360180e+00
  2.63503716e+00  2.64190870e+00  2.64511588e+00  2.64641035e+00
  2.65181928e+00  2.65304225e+00  2.65599567e+00  2.65924756e+00
  2.66402221e+00  2.66933563e+00  2.67041538e+00  2.67923042e+00
  2.68571549e+00  2.68819803e+00  2.69565607e+00  2.69655959e+00
  2.70174559e+00  2.70360359e+00  2.70826655e+00  2.70878538e+00
  2.71016680e+00  2.72257989e+00  2.72832549e+00  2.73475293e+00
  2.73864511e+00  2.75194206e+00  2.75718659e+00  2.76158149e+00
  2.76421213e+00  2.77123140e+00  2.77543403e+00  2.77809267e+00
  2.78626648e+00  2.79012412e+00  2.79204922e+00  2.79805018e+00
  2.80476588e+00  2.80642464e+00  2.81130414e+00  2.81431966e+00
  2.81624066e+00  2.82358918e+00  2.82573504e+00  2.82907842e+00
  2.83451731e+00  2.83734391e+00  2.84267472e+00  2.84717839e+00
  2.85104555e+00  2.85616060e+00  2.85958531e+00  2.87091345e+00
  2.87495520e+00  2.87924971e+00  2.88202232e+00  2.89231782e+00
  2.89977948e+00  2.90104873e+00  2.90643281e+00  2.91531664e+00
  2.92081993e+00  2.92611082e+00  2.93349728e+00  2.93585805e+00
  2.94348608e+00  2.94397887e+00  2.94905979e+00  2.95689325e+00
  2.96596676e+00  2.96841277e+00  2.97094293e+00  2.97399840e+00
  2.98263573e+00  2.98771132e+00  2.99225025e+00  2.99933252e+00
  3.00228790e+00  3.00553279e+00  3.01109760e+00  3.01981771e+00
  3.02890850e+00  3.03266813e+00  3.03859318e+00  3.04723613e+00
  3.05325307e+00  3.06082793e+00  3.07096877e+00  3.07294637e+00
  3.08028006e+00  3.08277225e+00  3.08630221e+00  3.09209709e+00
  3.09690827e+00  3.10096617e+00  3.11093514e+00  3.11108762e+00
  3.11916846e+00  3.12268886e+00  3.12514375e+00  3.12681753e+00
  3.12843687e+00  3.13605670e+00  3.13662393e+00  3.13953394e+00
  3.14266864e+00  3.14887507e+00  3.14961532e+00  3.15374966e+00
  3.15674987e+00  3.16207392e+00  3.16495578e+00  3.17304037e+00
  3.17448577e+00  3.18229633e+00  3.18402991e+00  3.19006809e+00
  3.19685466e+00  3.20159230e+00  3.20230269e+00  3.20481204e+00
  3.21168136e+00  3.21745976e+00  3.21762083e+00  3.22355828e+00
  3.23065511e+00  3.23209173e+00  3.23903963e+00  3.24405161e+00
  3.24661966e+00  3.25352610e+00  3.26091715e+00  3.26331063e+00
  3.26756520e+00  3.27147934e+00  3.27644981e+00  3.28245348e+00
  3.28408453e+00  3.29144845e+00  3.29337459e+00  3.29590745e+00
  3.30088945e+00  3.30491125e+00  3.30920902e+00  3.31167557e+00
  3.31693859e+00  3.31834829e+00  3.32708430e+00  3.33007750e+00
  3.33531180e+00  3.33738789e+00  3.34611074e+00  3.34865587e+00
  3.35610248e+00  3.36292461e+00  3.36538688e+00  3.37342153e+00
  3.37567502e+00  3.37997632e+00  3.38383216e+00  3.38833678e+00
  3.39014492e+00  3.39297555e+00  3.39964380e+00  3.40727748e+00
  3.41191139e+00  3.41261031e+00  3.41772760e+00  3.41874853e+00
  3.42736586e+00  3.43180323e+00  3.43376541e+00  3.44200285e+00
  3.44656506e+00  3.45357501e+00  3.46212583e+00  3.46291880e+00
  3.46471692e+00  3.46864143e+00  3.47268775e+00  3.47963014e+00
  3.48604889e+00  3.49056672e+00  3.49546157e+00  3.49758207e+00
  3.50008369e+00  3.50453102e+00  3.50667729e+00  3.51032881e+00
  3.51791845e+00  3.52011832e+00  3.52302574e+00  3.52638965e+00
  3.53345399e+00  3.53551604e+00  3.55120533e+00  3.55175458e+00
  3.55601735e+00  3.56846875e+00  3.57382915e+00  3.58293375e+00
  3.58349619e+00  3.59343566e+00  3.60367347e+00  3.61207456e+00
  3.61776558e+00  3.61964502e+00  3.62571565e+00  3.63270328e+00
  3.65035749e+00  3.65648598e+00  3.66304754e+00  3.67389200e+00
  3.68367571e+00  3.69372442e+00  3.70359710e+00  3.70743971e+00
  3.72301305e+00  3.72906399e+00  3.73494677e+00  3.74779426e+00
  3.75462787e+00  3.75579075e+00  3.75927502e+00  3.77243391e+00
  3.77595529e+00  3.78704433e+00  3.79723290e+00  3.80341220e+00
  3.80733830e+00  3.82163758e+00  3.82737887e+00  3.83994752e+00
  3.84348956e+00  3.85841350e+00  3.86427126e+00  3.87564960e+00
  3.88031398e+00  3.88990750e+00  3.89426969e+00  3.90935449e+00
  3.91370274e+00  3.92217140e+00  3.92410475e+00  3.93180059e+00
  3.94740904e+00  3.95035664e+00  3.95774472e+00  3.96315630e+00
  3.97094160e+00  3.98130674e+00  3.98760561e+00  3.99613783e+00
  4.00546279e+00  4.00646499e+00  4.01473247e+00  4.01790760e+00
  4.02786294e+00  4.03623520e+00  4.04282934e+00  4.04703962e+00
  4.06015696e+00  4.08063039e+00  4.09090671e+00  4.09621738e+00
  4.10514253e+00  4.11847616e+00  4.12715410e+00  4.13155053e+00
  4.14614443e+00  4.14794012e+00  4.15671064e+00  4.16276681e+00
  4.16585254e+00  4.16935776e+00  4.17572235e+00  4.18318890e+00
  4.18680629e+00  4.19298194e+00  4.19871791e+00  4.20022240e+00
  4.20691723e+00  4.21122125e+00  4.21392459e+00  4.22183315e+00
  4.22906314e+00  4.23004656e+00  4.23950190e+00  4.24480772e+00
  4.25299878e+00  4.25967409e+00  4.27283117e+00  4.27437875e+00
  4.28530759e+00  4.28920477e+00  4.29439501e+00  4.30350616e+00
  4.31330454e+00  4.32371984e+00  4.33118312e+00  4.35042708e+00
  4.35704230e+00  4.36986439e+00  4.38082699e+00  4.39808793e+00
  4.41145797e+00  4.42942364e+00  4.43257721e+00  4.44923126e+00
  4.45518339e+00  4.47246160e+00  4.49526733e+00  4.50342039e+00
  4.50817002e+00  4.51689822e+00  4.53953504e+00  4.55326374e+00
  4.57379932e+00  4.58157304e+00  4.59358829e+00  4.59824795e+00
  4.61124718e+00  4.62164276e+00  4.64404235e+00  4.65394162e+00
  4.66248749e+00  4.67299918e+00  4.68105794e+00  4.68805328e+00
  4.70475021e+00  4.71376846e+00  4.72158231e+00  4.73579593e+00
  4.74642757e+00  4.76012045e+00  4.78704518e+00  4.79112422e+00
  4.79544906e+00  4.81618039e+00  4.82748748e+00  4.83428195e+00
  4.84514911e+00  4.85458143e+00  4.86930286e+00  4.87362600e+00
  4.87670743e+00  4.89048515e+00  4.90439535e+00  4.90598977e+00
  4.93174527e+00  4.93947578e+00  4.94510976e+00  4.96072224e+00
  4.96407568e+00  4.97535119e+00  4.98546096e+00  5.00204061e+00
  5.03447177e+00  5.04531023e+00  5.06258876e+00  5.08975261e+00
  5.09537616e+00  5.10158246e+00  5.13285208e+00  5.13555988e+00
  5.14157323e+00  5.15811501e+00  5.17106822e+00  5.17710733e+00
  5.17813140e+00  5.18972282e+00  5.19445965e+00  5.19791375e+00
  5.22078970e+00  5.25702774e+00  5.26120333e+00  5.26808488e+00
  5.28078959e+00  5.28147523e+00  5.31505436e+00  5.31648163e+00
  5.32292586e+00  5.33837593e+00  5.34762751e+00  5.38500333e+00
  5.38884097e+00  5.39506545e+00  5.40229842e+00  5.41261186e+00
  5.44103748e+00  5.45738561e+00  5.46637043e+00  5.48111645e+00
  5.48438016e+00  5.48668309e+00  5.49509041e+00  5.51402440e+00
  5.53488413e+00  5.54203638e+00  5.57987912e+00  5.60668594e+00
  5.63014721e+00  5.63989192e+00  5.67116152e+00  5.67810797e+00
  5.70921934e+00  5.71907745e+00  5.72614563e+00  5.76042045e+00
  5.78416793e+00  5.79827303e+00  5.82578027e+00  5.90822272e+00
  5.94736101e+00  5.98414697e+00  6.00075235e+00  6.06278100e+00
  6.06991151e+00  6.18329358e+00  6.21471641e+00  6.23561377e+00
  6.28740166e+00  6.29388706e+00  6.36396164e+00  6.38896204e+00
  6.39685859e+00  6.41949044e+00  6.44269608e+00  6.45459619e+00
  6.49449106e+00  6.61729816e+00  6.71342445e+00  6.73371417e+00
  6.79978865e+00  6.82274936e+00  6.88520777e+00  6.90283675e+00
  6.98996508e+00  7.01077359e+00  7.15258686e+00  7.18867166e+00
  7.26963012e+00  7.28505154e+00  2.21790306e+01  2.22046216e+01
  2.22675661e+01  2.25572227e+01  2.26110516e+01  2.26164298e+01
  2.26795788e+01  2.26964868e+01  2.27058018e+01  2.27164308e+01
  2.27364816e+01  2.27545908e+01  2.27586761e+01  2.27848837e+01
  2.27962014e+01  2.28117895e+01  2.29291138e+01  2.29445056e+01
  2.30162214e+01  2.31550062e+01  2.31717335e+01  2.32326987e+01
  2.33280852e+01  2.33905040e+01  2.35647608e+01  2.35961935e+01
  3.26002739e+01  3.27458993e+01  3.32047789e+01  4.40146524e+01
  4.40287673e+01  4.41744669e+01]
nelec by numeric integration = 222.00012674056617
    CPU time for vxc    180.70 sec, wall time     10.21 sec
    CPU time for df vj and vk    699.75 sec, wall time     46.49 sec
E1 = -7592.569631462796  Ecoul = 3526.8758531746967  Exc = -193.85648789291412
Extra cycle  E= -1392.25107339833  delta_E= 1.82e-12  |g|= 1.89e-06  |ddm|= 3.43e-06
    CPU time for scf_cycle   5879.17 sec, wall time    419.96 sec
    CPU time for SCF   5879.25 sec, wall time    419.97 sec
converged SCF energy = -1392.25107339833
SCF Done after 420.04 seconds
after SCF memory used: 14.35 GB
Converting <class 'pyscf.df.df_jk.density_fit.<locals>.DFHF'> to RHF
Converting <class 'pyscf.df.df_jk.density_fit.<locals>.DFHF'> to RHF
hdiag shape (111777,)
n_occ =  111
n_vir =  1007
max_vir =  308
A_size =  111777
A_reduced_size = 34188
a_x = 0.25
beta = 0.6575
alpha = 1.54
Q-Gamma tensors building time = 0.66
after Q matrix memory used: 14.57 GB
TDDFT
|-------- In-house Developed TDDFT Starts ---------|
Residual conv = 1e-05

Number of excited states = 20
Initial guess:   sTDDFT
Preconditioner:  sTDDFT
A matrix size =  111777
setting initial guess
sTDDFT Convergence tol = 1.00e-03
sTDDFT diagonalization Converged
after  6 iterations; 31.3374 seconds
final subspace 114
max_norm =  7.38e-04
MVcost     11.4059s 36.40%
GScost     16.2463s 51.84%
subgencost 2.2871s 7.30%
subcost    0.1020s 0.33%
sTDDFT excitation energy:
[2.55294009 3.03096646 3.26174269 3.30378155 3.34410178 3.43671981
 3.73645921 3.97228316 4.08019007 4.10541546 4.27508675 4.49828843
 4.50354612 4.52582706 4.55064041 4.62594704 4.64243976 4.68088465
 4.7146744  4.7362924  4.75395757 4.79813626 4.88863522 4.89598081
 4.92758949 4.99434025 5.03920268 5.10257415]
new_m = 28
initial guess done

iteration 0
beginning of step 0 memory used: 16.81 GB
    CPU time for df vj and vk  19473.78 sec, wall time   1131.91 sec
subspace size: 28
Maximum residual norm:  8.94e-02
unconverged states [0, 1, 2, 3, 4, 5, 6, 7, 8, 9, 10, 11, 12, 13, 14, 15, 16, 17, 18, 19]
sTDDFT_preconditioner conv 0.01
sTDDFT preconditioning Done
after 10 steps; 43.0153 s
final subspace 116
max_norm =  6.15e-03
initial_cost 1.1548s  2.68%
MVcost     12.5631s  29.21%
GScost     22.0637s  51.29%
subgencost 5.7080s  13.27%
subcost    0.3520s  0.82%
m & new_m 28 48

iteration 1
beginning of step 1 memory used: 16.99 GB
    CPU time for df vj and vk  13848.20 sec, wall time    807.18 sec
subspace size: 48
Maximum residual norm:  2.13e-02
unconverged states [0, 1, 2, 3, 4, 5, 6, 7, 8, 9, 10, 11, 12, 13, 14, 15, 16, 17, 18, 19]
sTDDFT_preconditioner conv 0.01
sTDDFT preconditioning Done
after 10 steps; 46.0284 s
final subspace 120
max_norm =  6.35e-03
initial_cost 1.2049s  2.62%
MVcost     13.1090s  28.48%
GScost     24.0571s  52.27%
subgencost 6.0054s  13.05%
subcost    0.2688s  0.58%
m & new_m 48 68

iteration 2
beginning of step 2 memory used: 17.04 GB
    CPU time for df vj and vk  13838.78 sec, wall time    807.04 sec
subspace size: 68
Maximum residual norm:  8.04e-03
unconverged states [0, 1, 2, 3, 4, 5, 6, 7, 8, 9, 10, 11, 12, 13, 14, 15, 16, 17, 18, 19]
sTDDFT_preconditioner conv 0.01
sTDDFT preconditioning Done
after 9 steps; 45.7900 s
final subspace 124
max_norm =  9.96e-03
initial_cost 1.2070s  2.64%
MVcost     13.3910s  29.24%
GScost     25.4939s  55.68%
subgencost 4.3290s  9.45%
subcost    0.1512s  0.33%
m & new_m 68 88

iteration 3
beginning of step 3 memory used: 17.05 GB
    CPU time for df vj and vk  13838.97 sec, wall time    803.46 sec
subspace size: 88
Maximum residual norm:  1.86e-03
unconverged states [0, 1, 2, 3, 4, 5, 6, 7, 8, 9, 10, 11, 12, 13, 14, 15, 16, 17, 18, 19]
sTDDFT_preconditioner conv 0.01
sTDDFT preconditioning Done
after 10 steps; 42.4129 s
final subspace 116
max_norm =  8.02e-03
initial_cost 1.1891s  2.80%
MVcost     12.2430s  28.87%
GScost     22.2263s  52.40%
subgencost 5.0815s  11.98%
subcost    0.1828s  0.43%
m & new_m 88 108

iteration 4
beginning of step 4 memory used: 17.05 GB
    CPU time for df vj and vk  13871.51 sec, wall time    811.00 sec
subspace size: 108
Maximum residual norm:  4.77e-04
unconverged states [0, 1, 2, 3, 4, 5, 6, 7, 8, 9, 10, 11, 12, 13, 14, 15, 16, 17, 18, 19]
sTDDFT_preconditioner conv 0.01
sTDDFT preconditioning Done
after 10 steps; 46.8997 s
final subspace 124
max_norm =  5.45e-03
initial_cost 1.1617s  2.48%
MVcost     13.5065s  28.80%
GScost     25.3223s  53.99%
subgencost 5.3974s  11.51%
subcost    0.1792s  0.38%
m & new_m 108 128

iteration 5
beginning of step 5 memory used: 17.07 GB
    CPU time for df vj and vk  13781.20 sec, wall time    807.67 sec
subspace size: 128
Maximum residual norm:  1.24e-04
unconverged states [0, 1, 2, 3, 4, 5, 6, 7, 8, 9, 10, 11, 12, 13, 14, 15, 16, 17, 18, 19]
sTDDFT_preconditioner conv 0.01
sTDDFT preconditioning Done
after 8 steps; 42.9253 s
final subspace 117
max_norm =  9.96e-03
initial_cost 1.1600s  2.70%
MVcost     12.9208s  30.10%
GScost     23.5903s  54.96%
subgencost 3.8870s  9.06%
subcost    0.2455s  0.57%
m & new_m 128 148

iteration 6
beginning of step 6 memory used: 17.08 GB
    CPU time for df vj and vk  13826.64 sec, wall time    809.88 sec
subspace size: 148
Maximum residual norm:  3.23e-05
unconverged states [0, 1, 7, 11, 12, 13, 16, 17, 18, 19]
sTDDFT_preconditioner conv 0.01
sTDDFT preconditioning Done
after 12 steps; 24.8571 s
final subspace 87
max_norm =  6.48e-03
initial_cost 0.3829s  1.54%
MVcost     9.1226s  36.70%
GScost     10.9399s  44.01%
subgencost 3.4991s  14.08%
subcost    0.0849s  0.34%
m & new_m 148 158

iteration 7
beginning of step 7 memory used: 17.05 GB
    CPU time for df vj and vk   6915.98 sec, wall time    405.24 sec
subspace size: 158
Maximum residual norm:  6.84e-06
TDDFT precedure Done

============= TDDFT Calculation Done ==============
after 8 iterations 8431.43 s
Final subspace  158
preconditioning cost 293.3941 0.03 %
max_norm =  6.84e-06
Total TDDFT memory used: 17.05 GB
Excited State energies (eV) =
 [2.71699875 3.24258787 3.53719093 3.58992652 3.60489601 3.7360932
 3.905482   4.22312026 4.38669742 4.41272293 4.55731576 4.72111366
 4.7523318  4.8274604  4.84142944 4.86984287 4.92866633 4.9423646
 4.97099634 4.97858135]

Number of excited states = 20
Initial guess:   Adiag
Preconditioner:  Adiag
A matrix size =  111777
new_m = 28
initial guess done

iteration 0
beginning of step 0 memory used: 17.02 GB
    CPU time for df vj and vk  19311.45 sec, wall time   1126.93 sec
subspace size: 28
Maximum residual norm:  1.43e-01
unconverged states [0, 1, 2, 3, 4, 5, 6, 7, 8, 9, 10, 11, 12, 13, 14, 15, 16, 17, 18, 19]
m & new_m 28 48

iteration 1
beginning of step 1 memory used: 17.04 GB
    CPU time for df vj and vk  13844.67 sec, wall time    813.14 sec
subspace size: 48
Maximum residual norm:  4.16e-02
unconverged states [0, 1, 2, 3, 4, 5, 6, 7, 8, 9, 10, 11, 12, 13, 14, 15, 16, 17, 18, 19]
m & new_m 48 68

iteration 2
beginning of step 2 memory used: 17.09 GB
    CPU time for df vj and vk  13842.42 sec, wall time    808.16 sec
subspace size: 68
Maximum residual norm:  2.27e-02
unconverged states [0, 1, 2, 3, 4, 5, 6, 7, 8, 9, 10, 11, 12, 13, 14, 15, 16, 17, 18, 19]
m & new_m 68 88

iteration 3
beginning of step 3 memory used: 17.06 GB
    CPU time for df vj and vk  13795.96 sec, wall time    800.24 sec
subspace size: 88
Maximum residual norm:  8.62e-03
unconverged states [0, 1, 2, 3, 4, 5, 6, 7, 8, 9, 10, 11, 12, 13, 14, 15, 16, 17, 18, 19]
m & new_m 88 108

iteration 4
beginning of step 4 memory used: 17.09 GB
    CPU time for df vj and vk  13849.08 sec, wall time    812.37 sec
subspace size: 108
Maximum residual norm:  5.99e-03
unconverged states [0, 1, 2, 3, 4, 5, 6, 7, 8, 9, 10, 11, 12, 13, 14, 15, 16, 17, 18, 19]
m & new_m 108 128

iteration 5
beginning of step 5 memory used: 17.11 GB
    CPU time for df vj and vk  13816.88 sec, wall time    808.53 sec
subspace size: 128
Maximum residual norm:  1.84e-03
unconverged states [0, 1, 2, 3, 4, 5, 6, 7, 8, 9, 10, 11, 12, 13, 14, 15, 16, 17, 18, 19]
m & new_m 128 148

iteration 6
beginning of step 6 memory used: 17.13 GB
    CPU time for df vj and vk  13831.51 sec, wall time    808.11 sec
subspace size: 148
Maximum residual norm:  4.93e-04
unconverged states [0, 1, 2, 3, 6, 7, 8, 9, 10, 11, 12, 13, 14, 15, 16, 17, 18, 19]
m & new_m 148 166

iteration 7
beginning of step 7 memory used: 17.11 GB
    CPU time for df vj and vk  12442.48 sec, wall time    727.63 sec
subspace size: 166
Maximum residual norm:  1.26e-04
unconverged states [7, 11, 12, 13, 15, 16, 17, 18, 19]
m & new_m 166 175

iteration 8
beginning of step 8 memory used: 17.00 GB
    CPU time for df vj and vk   6236.18 sec, wall time    366.39 sec
subspace size: 175
Maximum residual norm:  3.00e-05
unconverged states [17, 18, 19]
m & new_m 175 178

iteration 9
beginning of step 9 memory used: 17.04 GB
    CPU time for df vj and vk   2083.20 sec, wall time    126.05 sec
subspace size: 178
Maximum residual norm:  7.67e-06
TDDFT precedure Done

============= TDDFT Calculation Done ==============
after 10 iterations 9154.22 s
Final subspace  178
preconditioning cost 0.8347 0.00 %
max_norm =  7.67e-06
Total TDDFT memory used: 17.03 GB
Excited State energies (eV) =
 [2.71699875 3.24258787 3.53719093 3.58992652 3.60489601 3.7360932
 3.905482   4.22312026 4.38669742 4.41272293 4.55731576 4.72111366
 4.7523318  4.8274604  4.84142944 4.86984287 4.92866633 4.9423646
 4.97099635 4.97858135]
xyzfile = 53_Coelenterazine.xyz
checkfile = True
method = RKS
functional = pbe0
basis_set = def2-tzvp
density_fit = True
grid_level = 3
nstates = 20
pytd = False
TDA = False
TDDFT = True
dynpol = False
dynpol_omega = []
stapol = False
sTDA = False
sTDDFT = False
Truncate_test = False
truncate_virtual = 40.0
ip_options = [0, 1]
conv_tolerance = 1e-05
initial_TOL = 0.001
precond_TOL = 0.01
extrainitial = 8
max = 30
eigensolver_tol = 1e-05
memory = 80000
verbose = 5
beta = []
alpha = []
|-------- In-house Developed TDDFT Ends ----------|
