curpath /scratch/pbsjobs/job.15971977.hpc
lib.num_threads() =  16
at beginning memory used: 51.87109375 MB
mol.max_memory 60000


System: uname_result(system='Linux', node='compt178', release='3.10.0-1127.el7.x86_64', version='#1 SMP Tue Feb 18 16:39:12 EST 2020', machine='x86_64', processor='x86_64')  Threads 16
Python 3.7.0 (default, Aug 23 2018, 14:24:33) 
[GCC 6.3.0]
numpy 1.18.1  scipy 1.4.1
Date: Wed Jul  7 23:29:22 2021
PySCF version 1.7.4
PySCF path  /home/zzz6/.local/lib/python3.7/site-packages/pyscf

[CONFIG] conf_file None
[INPUT] verbose = 5
[INPUT] max_memory = 60000 
[INPUT] num. atoms = 83
[INPUT] num. electrons = 314
[INPUT] charge = 0
[INPUT] spin (= nelec alpha-beta = 2S) = 0
[INPUT] symmetry False subgroup None
[INPUT] Mole.unit = angstrom
[INPUT]  1 O     -4.902982297871  -2.855278903159  -1.086968075212 AA   -9.265293736566  -5.395695136220  -2.054071968297 Bohr
[INPUT]  2 O     -3.688663386284  -1.477121544840  -2.418415966091 AA   -6.970563565787  -2.791355172442  -4.570143831187 Bohr
[INPUT]  3 O     -1.394176334558   4.761588697686   1.704485719201 AA   -2.634611441664   8.998098556450   3.221011192522 Bohr
[INPUT]  4 O     -8.178807348645   0.263641637218  -0.215428946742 AA  -15.455705914520   0.498210489374  -0.407101708646 Bohr
[INPUT]  5 O     -7.079585965842  -1.285438625874  -1.412974604011 AA  -13.378478550756  -2.429126952838  -2.670135022547 Bohr
[INPUT]  6 O      3.888205431183  -1.459766783793   2.943114831397 AA    7.347643380983  -2.758559427107   5.561680984485 Bohr
[INPUT]  7 N     -1.927747504618  -0.917666646182  -0.396980720132 AA   -3.642914821042  -1.734138634932  -0.750184837782 Bohr
[INPUT]  8 N      0.293232189221   1.316192072677  -0.916548089970 AA    0.554128528535   2.487242544684  -1.732024870036 Bohr
[INPUT]  9 N      3.298055179808  -0.302921998661  -1.876403768234 AA    6.232421033541  -0.572439614575  -3.545889221063 Bohr
[INPUT] 10 N      4.084716837660  -2.953633626964   1.159431702686 AA    7.718996119577  -5.581558627267   2.191008378215 Bohr
[INPUT] 11 C     -3.637515483235  -0.451871354593   1.215919215302 AA   -6.873908037180  -0.853913103717   2.297754306516 Bohr
[INPUT] 12 C     -3.381953778562  -1.981464812013   1.140446778871 AA   -6.390966407421  -3.744425820168   2.155132071710 Bohr
[INPUT] 13 C     -2.766420098079  -2.119454707542  -0.272293356155 AA   -5.227776330861  -4.005188930674  -0.514559868671 Bohr
[INPUT] 14 C     -2.410500312210   0.080194483233   0.498300044770 AA   -4.555185413256   0.151545610011   0.941650612473 Bohr
[INPUT] 15 C     -4.899425631273   0.035553986968   0.441486510476 AA   -9.258572610781   0.067187298006   0.834288592490 Bohr
[INPUT] 16 C     -1.827549944049   1.300954659768   0.627898307335 AA   -3.453568873217   2.458448007438   1.186555834940 Bohr
[INPUT] 17 C     -2.419208660630  -2.451388525113   2.238458604103 AA   -4.571641806766  -4.632452937365   4.230073702930 Bohr
[INPUT] 18 C     -0.649931124786   1.790519358733  -0.048238633441 AA   -1.228191825676   3.383591208736  -0.091157805826 Bohr
[INPUT] 19 C     -2.292648487686   2.466118054298   1.497135651530 AA   -4.332477741625   4.660287713468   2.829176352714 Bohr
[INPUT] 20 C     -0.331243813584   3.121124005606   0.250945437449 AA   -0.625960088130   5.898069571401   0.474218148989 Bohr
[INPUT] 21 C     -6.228430267156  -0.683555323746   0.789920655216 AA  -11.770027390877  -1.291732352867   1.492733698494 Bohr
[INPUT] 22 C     -3.820639700954  -2.123031974928  -1.392452232982 AA   -7.219962655444  -4.011948986308  -2.631353361875 Bohr
[INPUT] 23 C     -1.309502418463   3.648407541276   1.200334557011 AA   -2.474600930351   6.894491043809   2.268303570602 Bohr
[INPUT] 24 C      0.865694011106   3.472427679177  -0.460975099612 AA    1.635924588666   6.561937301004  -0.871116688510 Bohr
[INPUT] 25 C      1.233248279023   2.327805446548  -1.170681190211 AA    2.330501490944   4.398914765246  -2.212266828678 Bohr
[INPUT] 26 C      2.412431399030   2.057998063630  -2.066955948286 AA    4.558834638467   3.889052705147  -3.905980653801 Bohr
[INPUT] 27 C      3.369864412638   1.029728586476  -1.519880226805 AA    6.368120816803   1.945905011075  -2.872157370804 Bohr
[INPUT] 28 C      1.561673518386   4.801328571107  -0.425946903229 AA    2.951135245736   9.073196033442  -0.804922990710 Bohr
[INPUT] 29 C     -7.182527400278  -0.627189478083  -0.382657927909 AA  -13.573009668709  -1.185216341785  -0.723118683141 Bohr
[INPUT] 30 C      4.403303080261   1.156909629162  -0.593595216588 AA    8.321036865147   2.186242349989  -1.121732388203 Bohr
[INPUT] 31 C      4.271526643254  -1.037607080481  -1.220428512266 AA    8.072015489532  -1.960793207019  -2.306275642793 Bohr
[INPUT] 32 C      4.983942789066  -0.147762226696  -0.412060317861 AA    9.418286891835  -0.279230140011  -0.778681147559 Bohr
[INPUT] 33 C      4.263884523999  -2.529354376014  -1.289041857654 AA    8.057573977130  -4.779787042636  -2.435936074067 Bohr
[INPUT] 34 C      3.431546615863  -3.171705813469  -0.117670625560 AA    6.484683287659  -5.993655335148  -0.222365255214 Bohr
[INPUT] 35 C      4.855430358009   2.436802807264   0.060682231908 AA    9.175433593537   4.604889925300   0.114672798934 Bohr
[INPUT] 36 C      2.103109926067  -2.457726470358   0.082678694391 AA    3.974301770121  -4.644429918071   0.156240088736 Bohr
[INPUT] 37 C      6.133753808450  -0.472680704112   0.500211346707 AA   11.591114813478  -0.893237075137   0.945262449675 Bohr
[INPUT] 38 C      2.157433487014  -1.712023382578   1.227387690157 AA    4.076958422422  -3.235255311924   2.319426583060 Bohr
[INPUT] 39 C      5.941010267091   3.183558088237  -0.738213886245 AA   11.226882308030   6.016052888412  -1.395022066353 Bohr
[INPUT] 40 C      3.459114805336  -1.976339167643   1.916286659205 AA    6.536779615514  -3.734739756096   3.621256962055 Bohr
[INPUT] 41 C      1.001016529814  -2.498728901799  -0.859019331872 AA    1.891647087511  -4.721913283936  -1.623311272946 Bohr
[INPUT] 42 C      1.190196489593  -0.732041299911   1.797807004821 AA    2.249145399750  -1.383357568701   3.397362863935 Bohr
[INPUT] 43 C      0.940519842815  -3.213706286863  -2.008850316649 AA    1.777324917639  -6.073024726964  -3.796176923712 Bohr
[INPUT] 44 H     -3.690562312223  -0.107400889367   2.262799604233 AA   -6.974152015743  -0.202958266439   4.276071526774 Bohr
[INPUT] 45 H     -4.309434991280  -2.569827911259   1.195947181325 AA   -8.143651885136  -4.856270939542   2.260012632149 Bohr
[INPUT] 46 H     -2.158196821500  -3.040623509558  -0.361666538954 AA   -4.078400915543  -5.745945680978  -0.683450707042 Bohr
[INPUT] 47 H     -1.878153034178  -0.607120166256  -1.375630517566 AA   -3.549194854618  -1.147290838925  -2.599564926794 Bohr
[INPUT] 48 H     -5.014305056207   1.118325568711   0.618136545998 AA   -9.475663261254   2.113329042962   1.168108779520 Bohr
[INPUT] 49 H     -4.707347144056  -0.065775424093  -0.639245964977 AA   -8.895596875520  -0.124297537263  -1.207999800041 Bohr
[INPUT] 50 H     -1.478778213517  -1.875932551427   2.218637177201 AA   -2.794485822521  -3.544998750354   4.192616634688 Bohr
[INPUT] 51 H     -2.171214598191  -3.519424776633   2.112795385362 AA   -4.103000948239  -6.650748943845   3.992604635580 Bohr
[INPUT] 52 H     -2.877366757617  -2.320935823719   3.233912305331 AA   -5.437435131824  -4.385933059520   6.111208567936 Bohr
[INPUT] 53 H     -2.249828769155   2.231876620312   2.577324856684 AA   -4.251560200870   4.217635556210   4.870438113167 Bohr
[INPUT] 54 H     -3.326150070280   2.791706230226   1.279141888325 AA   -6.285512682031   5.275560195369   2.417227843393 Bohr
[INPUT] 55 H     -6.037892807527  -1.752664898744   0.974234167276 AA  -11.409963775707  -3.312056646764   1.841035757345 Bohr
[INPUT] 56 H     -6.699554195995  -0.245337843227   1.683136693866 AA  -12.660322587110  -0.463621331690   3.180667381613 Bohr
[INPUT] 57 H      0.395956750464   0.347838424334  -1.211393834136 AA    0.748249815550   0.657319357591  -2.289202575504 Bohr
[INPUT] 58 H      2.060051899665   1.734635308753  -3.067243220909 AA    3.892933892757   3.277985659543  -5.796249644946 Bohr
[INPUT] 59 H      2.943731877629   3.009806312539  -2.223974614419 AA    5.562847032871   5.687709618687  -4.202702929237 Bohr
[INPUT] 60 H      1.938930307266   5.020218725404   0.589283724215 AA    3.664047255352   9.486838476427   1.113584848429 Bohr
[INPUT] 61 H      2.415371504628   4.838935139578  -1.122944829466 AA    4.564390632825   9.144262148337  -2.122058180687 Bohr
[INPUT] 62 H      0.864496310212   5.616638790161  -0.686975632522 AA    1.633661261999  10.613909054012  -1.298195799716 Bohr
[INPUT] 63 H      2.625110483613  -0.706360927459  -2.523612542915 AA    4.960739860754  -1.334828697992  -4.768936550626 Bohr
[INPUT] 64 H     -5.683868379980  -2.500152084464  -1.596333115491 AA  -10.740954566237  -4.724602709397  -3.016632391852 Bohr
[INPUT] 65 H      5.289936623073  -2.935435542287  -1.236367808936 AA    9.996531433914  -5.547169231237  -2.336396548118 Bohr
[INPUT] 66 H      3.838896433940  -2.867910151077  -2.251297696973 AA    7.254462880716  -5.419564735395  -4.254336072144 Bohr
[INPUT] 67 H      3.299446562746  -4.251981515339  -0.320705002534 AA    6.235050366228  -8.035080550704  -0.606044621567 Bohr
[INPUT] 68 H      5.237123757319   2.210868021225   1.073000621650 AA    9.896729581787   4.177935057674   2.027677306407 Bohr
[INPUT] 69 H      3.985949175379   3.102605599854   0.208013038627 AA    7.532352287902   5.863074856265   0.393087673344 Bohr
[INPUT] 70 H      6.943808782748   0.272058331705   0.403568527159 AA   13.121896860742   0.514115736829   0.762633988825 Bohr
[INPUT] 71 H      6.568263185596  -1.459628751089   0.263964560533 AA   12.412218534840  -2.758298583099   0.498820725999 Bohr
[INPUT] 72 H      5.818917310107  -0.487394815866   1.561209095976 AA   10.996160057593  -0.921042716520   2.950257614575 Bohr
[INPUT] 73 H      5.066872626686  -3.169690502701   1.314180716775 AA    9.575001572492  -5.989846949740   2.483441632889 Bohr
[INPUT] 74 H     -8.714524288742   0.240506810893  -1.038375458002 AA  -16.468064211593   0.454492003680  -1.962245230094 Bohr
[INPUT] 75 H      6.834469541979   2.550117258739  -0.879136404113 AA   12.915275641021   4.819023204544  -1.661327029908 Bohr
[INPUT] 76 H      6.253514018908   4.109187946848  -0.222068023485 AA   11.817428811865   7.765239813906  -0.419647745410 Bohr
[INPUT] 77 H      5.571561311505   3.458296544858  -1.742524380342 AA   10.528724964967   6.535233327311  -3.292893844224 Bohr
[INPUT] 78 H      0.129260211218  -1.887965781744  -0.580046793530 AA    0.244266398005  -3.567738260046  -1.096129579204 Bohr
[INPUT] 79 H      1.019817126584  -0.942611864276   2.868135994037 AA    1.927175066384  -1.781278265248   5.419991516737 Bohr
[INPUT] 80 H      0.227223772571  -0.726967535691   1.265986673450 AA    0.429390699150  -1.373769543907   2.392368090170 Bohr
[INPUT] 81 H      1.622401494289   0.284274694284   1.744750768946 AA    3.065894488291   0.537201316341   3.297101108932 Bohr
[INPUT] 82 H      0.050072474565  -3.177440294193  -2.646594914243 AA    0.094623263308  -6.004491933183  -5.001339550587 Bohr
[INPUT] 83 H      1.752443431435  -3.872406121505  -2.338872122073 AA    3.311638134205  -7.317787012733  -4.419827751098 Bohr
[INPUT] ---------------- BASIS SET ---------------- 
[INPUT] l, kappa, [nprim/nctr], expnt,             c_1 c_2 ...
[INPUT] C
[INPUT] 0    0    [6    /1   ]  13575.349682      0.00022245814352
                                2035.233368       0.0017232738252
                                463.22562359      0.0089255715314
                                131.20019598      0.035727984502
                                42.853015891      0.11076259931
                                15.584185766      0.24295627626
[INPUT] 0    0    [2    /1   ]  6.2067138508      0.41440263448
                                2.5764896527      0.23744968655
[INPUT] 0    0    [1    /1   ]  0.57696339419        1
[INPUT] 0    0    [1    /1   ]  0.22972831358        1
[INPUT] 0    0    [1    /1   ]  0.095164440028       1
[INPUT] 1    0    [4    /1   ]  34.697232244      0.0053333657805
                                7.9582622826      0.035864109092
                                2.3780826883      0.14215873329
                                0.81433208183     0.34270471845
[INPUT] 1    0    [1    /1   ]  0.28887547253        1
[INPUT] 1    0    [1    /1   ]  0.10056823671        1
[INPUT] 2    0    [1    /1   ]  1.097                1
[INPUT] 2    0    [1    /1   ]  0.318                1
[INPUT] 3    0    [1    /1   ]  0.761                1
[INPUT] O
[INPUT] 0    0    [6    /1   ]  27032.382631      0.00021726302465
                                4052.3871392      0.0016838662199
                                922.3272271       0.0087395616265
                                261.24070989      0.035239968808
                                85.354641351      0.11153519115
                                31.035035245      0.25588953961
[INPUT] 0    0    [2    /1   ]  12.260860728      0.39768730901
                                4.9987076005      0.2462784943
[INPUT] 0    0    [1    /1   ]  1.1703108158         1
[INPUT] 0    0    [1    /1   ]  0.46474740994        1
[INPUT] 0    0    [1    /1   ]  0.18504536357        1
[INPUT] 1    0    [4    /1   ]  63.274954801      0.0060685103418
                                14.627049379      0.041912575824
                                4.4501223456      0.16153841088
                                1.5275799647      0.35706951311
[INPUT] 1    0    [1    /1   ]  0.52935117943        1
[INPUT] 1    0    [1    /1   ]  0.1747842127         1
[INPUT] 2    0    [1    /1   ]  2.314                1
[INPUT] 2    0    [1    /1   ]  0.645                1
[INPUT] 3    0    [1    /1   ]  1.428                1
[INPUT] H
[INPUT] 0    0    [3    /1   ]  34.061341         0.0060251978
                                5.1235746         0.045021094
                                1.1646626         0.20189726
[INPUT] 0    0    [1    /1   ]  0.32723041           1
[INPUT] 0    0    [1    /1   ]  0.10307241           1
[INPUT] 1    0    [1    /1   ]  0.8                  1
[INPUT] N
[INPUT] 0    0    [6    /1   ]  19730.800647      0.00021887984991
                                2957.8958745      0.0016960708803
                                673.22133595      0.0087954603538
                                190.68249494      0.035359382605
                                62.295441898      0.11095789217
                                22.654161182      0.24982972552
[INPUT] 0    0    [2    /1   ]  8.9791477428      0.40623896148
                                3.686300237       0.24338217176
[INPUT] 0    0    [1    /1   ]  0.84660076805        1
[INPUT] 0    0    [1    /1   ]  0.33647133771        1
[INPUT] 0    0    [1    /1   ]  0.13647653675        1
[INPUT] 1    0    [4    /1   ]  49.20038051       0.0055552416751
                                11.346790537      0.038052379723
                                3.4273972411      0.14953671029
                                1.1785525134      0.3494930523
[INPUT] 1    0    [1    /1   ]  0.41642204972        1
[INPUT] 1    0    [1    /1   ]  0.14260826011        1
[INPUT] 2    0    [1    /1   ]  1.654                1
[INPUT] 2    0    [1    /1   ]  0.469                1
[INPUT] 3    0    [1    /1   ]  1.093                1

nuclear repulsion = 5462.08638299416
number of shells = 633
number of NR pGTOs = 2298
number of NR cGTOs = 1573
basis = def2-tzvp
ecp = {}
CPU time:         3.57
RKS
Density fitting turned on
Molecule built
Calculating SCF Energy...


******** <class 'pyscf.df.df_jk.density_fit.<locals>.DFHF'> ********
method = DFHF-RKS-RHF
initial guess = chkfile
damping factor = 0
level_shift factor = 0
DIIS = <class 'pyscf.scf.diis.CDIIS'>
diis_start_cycle = 1
diis_space = 8
SCF conv_tol = 1e-10
SCF conv_tol_grad = None
SCF max_cycles = 50
direct_scf = True
direct_scf_tol = 1e-13
chkfile to save SCF result = 83_Dinoflagellate_luciferin_pbe0.chk
max_memory 60000 MB (current use 56 MB)
XC functionals = pbe0
small_rho_cutoff = 1e-07
radial grids: 
    Treutler-Ahlrichs [JCP 102, 346 (1995); DOI:10.1063/1.469408] (M4) radial grids
    
becke partition: Becke, JCP 88, 2547 (1988); DOI:10.1063/1.454033
pruning grids: <function nwchem_prune at 0x7fee6265b048>
grids dens level: 3
symmetrized grids: False
atomic radii adjust function: <function treutler_atomic_radii_adjust at 0x7fee62647f28>
Set gradient conv threshold to 1e-05
atom O rad-grids = 75, ang-grids = [ 50  50  50  50  50  50  50  50  50  50  50  50  50  50  50  50  50  50
  50  50  50  50  86  86  86  86  86  86  86  86  86 266 266 266 266 266
 266 266 302 302 302 302 302 302 302 302 302 302 302 302 302 302 302 302
 302 302 302 266 266 266 266 266 266 266 266 266 266 266 266 266 266 266
 266 266 266]
atom N rad-grids = 75, ang-grids = [ 50  50  50  50  50  50  50  50  50  50  50  50  50  50  50  50  50  50
  50  50  50  50  50  86  86  86  86  86  86  86  86  86 266 266 266 266
 266 266 266 302 302 302 302 302 302 302 302 302 302 302 302 302 302 302
 302 302 302 302 266 266 266 266 266 266 266 266 266 266 266 266 266 266
 266 266 266]
atom C rad-grids = 75, ang-grids = [ 50  50  50  50  50  50  50  50  50  50  50  50  50  50  50  50  50  50
  50  50  50  50  50  86  86  86  86  86  86  86  86  86  86 266 266 266
 266 266 266 266 302 302 302 302 302 302 302 302 302 302 302 302 302 302
 302 302 302 302 302 302 266 266 266 266 266 266 266 266 266 266 266 266
 266 266 266]
atom H rad-grids = 50, ang-grids = [ 50  50  50  50  50  50  50  50  50  50  50  50  50  50  86  86  86  86
 266 266 266 266 302 302 302 302 302 302 302 302 302 302 302 302 302 266
 266 266 266 266 266 266 266 266 266 266 266 266 266 266]
tot grids = 1001482
Drop grids 206244
    CPU time for setting up grids    444.08 sec, wall time     31.41 sec
nelec by numeric integration = 314.00096396235347
    CPU time for vxc    736.25 sec, wall time     49.43 sec
******** <class 'pyscf.df.df.DF'> ********
auxbasis = None
max_memory = 60000
_cderi_to_save = /tmp/job.15971977.hpc/tmp77xuejme
Default auxbasis def2-tzvp-jkfit is used for C def2-tzvp
Default auxbasis def2-tzvp-jkfit is used for O def2-tzvp
Default auxbasis def2-tzvp-jkfit is used for H def2-tzvp
Default auxbasis def2-tzvp-jkfit is used for N def2-tzvp
num shells = 1315, num cGTOs = 3965
size of aux basis 3965
int3c2e [1/7], AO [0:226], nrow = 197506
int3c2e [2/7], AO [226:317], nrow = 196322
int3c2e [3/7], AO [317:387], nrow = 197500
int3c2e [4/7], AO [387:448], nrow = 195557
int3c2e [5/7], AO [448:520], nrow = 196618
int3c2e [6/7], AO [520:608], nrow = 193842
int3c2e [7/7], AO [608:633], nrow = 60606
    CPU time for cholesky_eri   1623.96 sec, wall time    201.66 sec
    CPU time for df vj and vk   5653.70 sec, wall time    501.84 sec
E1 = -13530.568241230096  Ecoul = 6389.161247017352  Exc = -271.16001377804764
init E= -1950.48062499663
cond(S) = 2187271.602598633
    CPU time for initialize scf   6870.26 sec, wall time    585.87 sec
  HOMO = -0.198935459369766  LUMO = -0.0659866422663176
  mo_energy =
[-1.92884361e+01 -1.92602773e+01 -1.92309582e+01 -1.92125859e+01
 -1.91694862e+01 -1.91677522e+01 -1.44415185e+01 -1.44255560e+01
 -1.44140319e+01 -1.44073722e+01 -1.03921678e+01 -1.03717215e+01
 -1.03178132e+01 -1.02981533e+01 -1.02919341e+01 -1.02866618e+01
 -1.02770897e+01 -1.02676323e+01 -1.02663382e+01 -1.02657326e+01
 -1.02629735e+01 -1.02595477e+01 -1.02589356e+01 -1.02540604e+01
 -1.02534956e+01 -1.02517410e+01 -1.02516655e+01 -1.02499782e+01
 -1.02498494e+01 -1.02468942e+01 -1.02464358e+01 -1.02446362e+01
 -1.02355119e+01 -1.02333675e+01 -1.02318703e+01 -1.02224955e+01
 -1.02185759e+01 -1.02177178e+01 -1.02158460e+01 -1.02150602e+01
 -1.02128162e+01 -1.02100563e+01 -1.02090872e+01 -1.16882190e+00
 -1.14522919e+00 -1.07468651e+00 -1.05809595e+00 -1.05638823e+00
 -1.04021836e+00 -1.01448439e+00 -9.99921863e-01 -9.90766462e-01
 -9.71820377e-01 -8.67897434e-01 -8.62138278e-01 -8.54640499e-01
 -8.31035394e-01 -8.26486740e-01 -8.21753713e-01 -8.17570656e-01
 -8.03246125e-01 -7.96120853e-01 -7.81099463e-01 -7.68069782e-01
 -7.48229455e-01 -7.37647816e-01 -7.29843514e-01 -7.21235574e-01
 -7.11525597e-01 -7.04897388e-01 -6.91847838e-01 -6.82012020e-01
 -6.62990190e-01 -6.54467960e-01 -6.50771486e-01 -6.38778548e-01
 -6.35375310e-01 -6.20501421e-01 -6.07720755e-01 -5.96029814e-01
 -5.82426294e-01 -5.76162180e-01 -5.68339824e-01 -5.62448860e-01
 -5.59452536e-01 -5.51589035e-01 -5.50375430e-01 -5.48367781e-01
 -5.36799748e-01 -5.30583352e-01 -5.26328048e-01 -5.15178189e-01
 -5.14550012e-01 -5.04572296e-01 -4.97149226e-01 -4.91243506e-01
 -4.85282372e-01 -4.82194751e-01 -4.77016520e-01 -4.72864742e-01
 -4.68341953e-01 -4.65289087e-01 -4.61041989e-01 -4.59748022e-01
 -4.56550407e-01 -4.52089095e-01 -4.49946122e-01 -4.47029447e-01
 -4.40611315e-01 -4.38745615e-01 -4.35828900e-01 -4.33564840e-01
 -4.32388911e-01 -4.29207190e-01 -4.25998003e-01 -4.25035006e-01
 -4.20959025e-01 -4.19954304e-01 -4.16895190e-01 -4.15756963e-01
 -4.08479067e-01 -4.07881482e-01 -4.04386276e-01 -4.02216811e-01
 -4.02166053e-01 -3.97341905e-01 -3.95555391e-01 -3.90196073e-01
 -3.89090391e-01 -3.84462760e-01 -3.81500284e-01 -3.77240459e-01
 -3.76361906e-01 -3.75037033e-01 -3.71761708e-01 -3.70191386e-01
 -3.68275411e-01 -3.64092583e-01 -3.63170921e-01 -3.59322868e-01
 -3.52356345e-01 -3.46605435e-01 -3.45172068e-01 -3.41514630e-01
 -3.31451734e-01 -3.29661367e-01 -3.29021844e-01 -3.06966479e-01
 -2.73885265e-01 -2.73177727e-01 -2.66487357e-01 -2.57717056e-01
 -2.53356704e-01 -2.46882464e-01 -2.38396675e-01 -2.10904187e-01
 -1.98935459e-01 -6.59866423e-02 -4.13855419e-02 -2.47886252e-02
 -1.61607902e-02 -7.03949966e-04  1.46923460e-02  1.71302655e-02
  2.15276135e-02  3.02464452e-02  3.39050283e-02  3.56927523e-02
  4.29021021e-02  4.55674252e-02  5.16536361e-02  5.33376489e-02
  5.75240504e-02  6.17048888e-02  6.40892709e-02  6.51265506e-02
  7.36546846e-02  7.50586342e-02  7.71627555e-02  7.86619900e-02
  8.44010671e-02  8.81173170e-02  9.08026568e-02  9.16545331e-02
  9.56769598e-02  9.76785053e-02  1.00344617e-01  1.06171313e-01
  1.08264401e-01  1.08490557e-01  1.12604264e-01  1.15364235e-01
  1.18023179e-01  1.20687105e-01  1.24291844e-01  1.24510481e-01
  1.26386845e-01  1.28185819e-01  1.33360704e-01  1.35391666e-01
  1.36498323e-01  1.38031472e-01  1.42585546e-01  1.46358985e-01
  1.47354865e-01  1.51361665e-01  1.53917780e-01  1.54712424e-01
  1.56409540e-01  1.58462334e-01  1.59403038e-01  1.64211234e-01
  1.66273087e-01  1.71017382e-01  1.73036644e-01  1.73776316e-01
  1.75088659e-01  1.80759304e-01  1.82851406e-01  1.86055788e-01
  1.86553796e-01  1.88612981e-01  1.92544068e-01  1.94498819e-01
  1.97823222e-01  1.99125757e-01  2.02759036e-01  2.07797074e-01
  2.10090783e-01  2.11910956e-01  2.16943040e-01  2.17960312e-01
  2.21643972e-01  2.23061327e-01  2.26121693e-01  2.31472048e-01
  2.33891727e-01  2.35553812e-01  2.38368109e-01  2.39760284e-01
  2.40238686e-01  2.44560727e-01  2.48736974e-01  2.49842400e-01
  2.51625337e-01  2.53759372e-01  2.55802325e-01  2.57892819e-01
  2.59431084e-01  2.62025892e-01  2.66535821e-01  2.69853985e-01
  2.73065938e-01  2.73647600e-01  2.74688131e-01  2.79238378e-01
  2.80262688e-01  2.83315046e-01  2.86892708e-01  2.92325059e-01
  2.93189440e-01  2.96593987e-01  3.01337942e-01  3.02910179e-01
  3.05382069e-01  3.08334569e-01  3.09902925e-01  3.12256292e-01
  3.13974274e-01  3.17740439e-01  3.18869123e-01  3.21053272e-01
  3.25391907e-01  3.30046791e-01  3.33063141e-01  3.34340943e-01
  3.37288116e-01  3.38010106e-01  3.40835971e-01  3.42917105e-01
  3.46929966e-01  3.49042143e-01  3.50739127e-01  3.53101232e-01
  3.55731171e-01  3.60126876e-01  3.61255242e-01  3.63205403e-01
  3.64350024e-01  3.68490987e-01  3.69298295e-01  3.74418749e-01
  3.76864581e-01  3.78956278e-01  3.82758356e-01  3.87545050e-01
  3.90163382e-01  3.90781486e-01  3.91552484e-01  3.94829236e-01
  3.95919378e-01  3.96658740e-01  3.99795204e-01  4.01755414e-01
  4.03072924e-01  4.06530591e-01  4.07831022e-01  4.11354943e-01
  4.12444451e-01  4.13399164e-01  4.16164037e-01  4.17324882e-01
  4.18054667e-01  4.21444243e-01  4.23440468e-01  4.25882914e-01
  4.29116466e-01  4.30225650e-01  4.35039188e-01  4.35432290e-01
  4.35954900e-01  4.39229125e-01  4.40418755e-01  4.44379558e-01
  4.45803733e-01  4.47484009e-01  4.49627230e-01  4.50930296e-01
  4.54560974e-01  4.56922788e-01  4.59164570e-01  4.60560343e-01
  4.62552673e-01  4.66743728e-01  4.67057068e-01  4.68426543e-01
  4.70042294e-01  4.73712609e-01  4.74455065e-01  4.78855389e-01
  4.81580168e-01  4.82745957e-01  4.85601807e-01  4.88740506e-01
  4.90775299e-01  4.93114267e-01  4.95132401e-01  4.95684125e-01
  4.96608526e-01  4.99681161e-01  5.00554514e-01  5.04439102e-01
  5.08791879e-01  5.10089212e-01  5.13869451e-01  5.17073436e-01
  5.18512398e-01  5.20251515e-01  5.21956726e-01  5.23365444e-01
  5.25363866e-01  5.27627180e-01  5.28904995e-01  5.35149320e-01
  5.36447762e-01  5.36895659e-01  5.41221369e-01  5.45686369e-01
  5.46780059e-01  5.50629269e-01  5.53747585e-01  5.55867765e-01
  5.58768249e-01  5.60151339e-01  5.62708385e-01  5.67070012e-01
  5.68674197e-01  5.71039362e-01  5.73283833e-01  5.74125234e-01
  5.77918879e-01  5.78502986e-01  5.82411525e-01  5.84617795e-01
  5.91159513e-01  5.92868457e-01  5.95191064e-01  5.99135918e-01
  6.00504740e-01  6.01796641e-01  6.08196202e-01  6.12368289e-01
  6.15354005e-01  6.16942549e-01  6.18022671e-01  6.22645336e-01
  6.25874873e-01  6.27535729e-01  6.30601202e-01  6.33101714e-01
  6.36378493e-01  6.42410832e-01  6.44821915e-01  6.47162489e-01
  6.51845329e-01  6.55613555e-01  6.58066516e-01  6.59504123e-01
  6.63196772e-01  6.65255206e-01  6.67507345e-01  6.70402192e-01
  6.76302671e-01  6.79915130e-01  6.83365649e-01  6.84905507e-01
  6.88697486e-01  6.92099309e-01  6.97199028e-01  6.98945625e-01
  7.00554882e-01  7.04463341e-01  7.09316806e-01  7.10913682e-01
  7.12802134e-01  7.14316559e-01  7.21017821e-01  7.23321823e-01
  7.28785028e-01  7.29478710e-01  7.30625381e-01  7.38272653e-01
  7.45455671e-01  7.47157449e-01  7.50631661e-01  7.51832054e-01
  7.53652402e-01  7.58366704e-01  7.62065881e-01  7.68889282e-01
  7.70134451e-01  7.72832341e-01  7.78011955e-01  7.81548272e-01
  7.86033428e-01  7.91381016e-01  7.94002315e-01  7.99325305e-01
  8.00751978e-01  8.06499156e-01  8.07238333e-01  8.11177272e-01
  8.13667285e-01  8.14891423e-01  8.21391558e-01  8.22749129e-01
  8.25913653e-01  8.31896663e-01  8.34590744e-01  8.36234106e-01
  8.40452210e-01  8.48394739e-01  8.50719478e-01  8.55506218e-01
  8.59725405e-01  8.63607755e-01  8.65326329e-01  8.71359339e-01
  8.74120788e-01  8.75865976e-01  8.80519873e-01  8.85383082e-01
  8.87391925e-01  8.89481233e-01  8.93595339e-01  8.94682100e-01
  8.98990216e-01  9.04771931e-01  9.07243988e-01  9.10706112e-01
  9.16350351e-01  9.18617736e-01  9.21759548e-01  9.24057115e-01
  9.30856601e-01  9.35164780e-01  9.37222770e-01  9.40631278e-01
  9.44117659e-01  9.48595126e-01  9.55448598e-01  9.57330375e-01
  9.58501673e-01  9.62006662e-01  9.66363914e-01  9.71705615e-01
  9.74695433e-01  9.78976446e-01  9.82471488e-01  9.87660424e-01
  9.89001963e-01  9.91178668e-01  9.93110242e-01  9.98176010e-01
  1.00148501e+00  1.00540984e+00  1.01087040e+00  1.01217601e+00
  1.01526357e+00  1.01576884e+00  1.01834945e+00  1.02611054e+00
  1.02995079e+00  1.03350338e+00  1.03775752e+00  1.04185379e+00
  1.04553999e+00  1.04975214e+00  1.05340866e+00  1.05565361e+00
  1.06372132e+00  1.06661275e+00  1.07326535e+00  1.07652544e+00
  1.08266088e+00  1.08524473e+00  1.08550367e+00  1.09266679e+00
  1.09715249e+00  1.09812918e+00  1.10539498e+00  1.10628472e+00
  1.10809986e+00  1.11276809e+00  1.11516029e+00  1.11893609e+00
  1.12399105e+00  1.12780407e+00  1.13171898e+00  1.13488598e+00
  1.14063592e+00  1.14295351e+00  1.14813907e+00  1.15228881e+00
  1.15697451e+00  1.16164922e+00  1.16653153e+00  1.16838461e+00
  1.17165496e+00  1.17772376e+00  1.18033182e+00  1.18264868e+00
  1.18364821e+00  1.19086352e+00  1.19592551e+00  1.19985129e+00
  1.20049386e+00  1.20245163e+00  1.20695892e+00  1.21324665e+00
  1.21843860e+00  1.22383591e+00  1.22576706e+00  1.22847353e+00
  1.23278725e+00  1.23786478e+00  1.23937571e+00  1.24684728e+00
  1.24894138e+00  1.25541475e+00  1.26192377e+00  1.26653768e+00
  1.26988764e+00  1.27128497e+00  1.27766050e+00  1.27960817e+00
  1.28234213e+00  1.28625652e+00  1.29140706e+00  1.29881696e+00
  1.30253136e+00  1.30743851e+00  1.31194393e+00  1.31526510e+00
  1.32062620e+00  1.32244035e+00  1.32970493e+00  1.33011758e+00
  1.33444714e+00  1.33709543e+00  1.34664350e+00  1.34939523e+00
  1.35087361e+00  1.35245887e+00  1.35565160e+00  1.36074026e+00
  1.36671238e+00  1.37178020e+00  1.37682696e+00  1.38315477e+00
  1.38685388e+00  1.39120572e+00  1.39562379e+00  1.39786343e+00
  1.40568366e+00  1.41029428e+00  1.41394692e+00  1.41957841e+00
  1.42026555e+00  1.42845506e+00  1.43181139e+00  1.43417738e+00
  1.43661557e+00  1.44182282e+00  1.45103283e+00  1.45896486e+00
  1.46359765e+00  1.46441627e+00  1.46511254e+00  1.47096321e+00
  1.47635524e+00  1.48013795e+00  1.48334514e+00  1.48809466e+00
  1.49289531e+00  1.50053794e+00  1.50262005e+00  1.50846777e+00
  1.51192707e+00  1.51818910e+00  1.52129839e+00  1.52583338e+00
  1.53191938e+00  1.53478701e+00  1.53919381e+00  1.54272176e+00
  1.54374297e+00  1.54681689e+00  1.55098837e+00  1.55350211e+00
  1.55592046e+00  1.56211616e+00  1.56287491e+00  1.56791507e+00
  1.57052662e+00  1.57312992e+00  1.57564686e+00  1.57879995e+00
  1.58316625e+00  1.58456826e+00  1.58754584e+00  1.59049895e+00
  1.59636201e+00  1.60060953e+00  1.60179694e+00  1.60644402e+00
  1.60902249e+00  1.61359207e+00  1.61517139e+00  1.61713009e+00
  1.62355659e+00  1.62461414e+00  1.62681411e+00  1.63038978e+00
  1.63627623e+00  1.63918500e+00  1.64188875e+00  1.64892971e+00
  1.65165616e+00  1.65646698e+00  1.66068212e+00  1.66443553e+00
  1.66574590e+00  1.67230203e+00  1.67324922e+00  1.67482490e+00
  1.68019148e+00  1.68452413e+00  1.68780442e+00  1.69386478e+00
  1.69701744e+00  1.69783203e+00  1.70159771e+00  1.70711387e+00
  1.70854772e+00  1.71290202e+00  1.71660930e+00  1.71733799e+00
  1.72116658e+00  1.72563890e+00  1.72880684e+00  1.73246299e+00
  1.73504945e+00  1.73886316e+00  1.74388550e+00  1.74615105e+00
  1.75424928e+00  1.75733596e+00  1.75824493e+00  1.76765212e+00
  1.76820446e+00  1.77121419e+00  1.77455327e+00  1.78039119e+00
  1.78600962e+00  1.79317226e+00  1.79459796e+00  1.79881373e+00
  1.80537670e+00  1.80901616e+00  1.81626018e+00  1.82179286e+00
  1.82400401e+00  1.82971125e+00  1.83151352e+00  1.83660963e+00
  1.84022424e+00  1.84347926e+00  1.84841517e+00  1.84966339e+00
  1.85696048e+00  1.86085703e+00  1.86343324e+00  1.86993538e+00
  1.87236193e+00  1.87927733e+00  1.88540332e+00  1.88721370e+00
  1.88974693e+00  1.89330897e+00  1.89623132e+00  1.89742305e+00
  1.90582190e+00  1.90680195e+00  1.90778710e+00  1.91248800e+00
  1.92364636e+00  1.92449496e+00  1.92981028e+00  1.93470112e+00
  1.94009014e+00  1.94202654e+00  1.94554738e+00  1.95221278e+00
  1.95794115e+00  1.96010535e+00  1.96834906e+00  1.96978406e+00
  1.97172191e+00  1.97735341e+00  1.97775565e+00  1.98382556e+00
  1.98613120e+00  1.98904095e+00  1.99168657e+00  1.99995769e+00
  2.00371838e+00  2.00933126e+00  2.01183512e+00  2.01862417e+00
  2.02226586e+00  2.02359261e+00  2.02803516e+00  2.03269421e+00
  2.03668871e+00  2.04083881e+00  2.04458019e+00  2.04925706e+00
  2.05164942e+00  2.05544357e+00  2.05825109e+00  2.06647775e+00
  2.06757906e+00  2.07289660e+00  2.07789077e+00  2.08108653e+00
  2.08703905e+00  2.09064362e+00  2.09504182e+00  2.09747570e+00
  2.10340741e+00  2.11309044e+00  2.11392139e+00  2.11974815e+00
  2.12204520e+00  2.12585092e+00  2.12804571e+00  2.13552206e+00
  2.13989804e+00  2.14407254e+00  2.15221799e+00  2.15334448e+00
  2.15632284e+00  2.15819115e+00  2.16742161e+00  2.16848234e+00
  2.17589514e+00  2.18039452e+00  2.18901972e+00  2.19145159e+00
  2.19319673e+00  2.19737473e+00  2.19844249e+00  2.20372645e+00
  2.20868342e+00  2.21201089e+00  2.21350911e+00  2.21700217e+00
  2.21941331e+00  2.22533478e+00  2.23352411e+00  2.23989730e+00
  2.24075279e+00  2.24437402e+00  2.24888720e+00  2.25223489e+00
  2.25615377e+00  2.26444010e+00  2.26874607e+00  2.27158919e+00
  2.27834768e+00  2.28207532e+00  2.28452125e+00  2.28828820e+00
  2.29189440e+00  2.29587801e+00  2.29908456e+00  2.30792113e+00
  2.30832822e+00  2.31197990e+00  2.31558650e+00  2.32105870e+00
  2.32253271e+00  2.32854245e+00  2.33185193e+00  2.33741362e+00
  2.33936409e+00  2.34124372e+00  2.34830279e+00  2.35272432e+00
  2.35638013e+00  2.36391780e+00  2.36637946e+00  2.37242245e+00
  2.37344248e+00  2.37780299e+00  2.37916499e+00  2.38407604e+00
  2.38852561e+00  2.39521430e+00  2.39701406e+00  2.39835596e+00
  2.40446857e+00  2.40892661e+00  2.41449562e+00  2.41800030e+00
  2.42407457e+00  2.42466940e+00  2.43075719e+00  2.43413175e+00
  2.43684586e+00  2.44120748e+00  2.44470490e+00  2.45047644e+00
  2.45485912e+00  2.45611256e+00  2.45815465e+00  2.46051034e+00
  2.46492302e+00  2.46847487e+00  2.47237741e+00  2.47507831e+00
  2.47937757e+00  2.48564119e+00  2.49215292e+00  2.49467931e+00
  2.50604872e+00  2.50632433e+00  2.51083778e+00  2.51573557e+00
  2.52169150e+00  2.52689241e+00  2.52841328e+00  2.53683924e+00
  2.53908644e+00  2.54012995e+00  2.54539632e+00  2.54636663e+00
  2.54871403e+00  2.55546378e+00  2.55965755e+00  2.56171208e+00
  2.56455500e+00  2.56691443e+00  2.57612073e+00  2.57884621e+00
  2.58345014e+00  2.58615947e+00  2.59439437e+00  2.59532417e+00
  2.59775899e+00  2.60331031e+00  2.60420595e+00  2.60699734e+00
  2.61072031e+00  2.61789971e+00  2.61935766e+00  2.62108868e+00
  2.62725300e+00  2.62914008e+00  2.63267625e+00  2.63574350e+00
  2.64242205e+00  2.64782060e+00  2.64975304e+00  2.65274526e+00
  2.65598873e+00  2.65770351e+00  2.66076730e+00  2.66268711e+00
  2.66834466e+00  2.67467827e+00  2.68251569e+00  2.68668310e+00
  2.68865380e+00  2.68995303e+00  2.69501634e+00  2.69874370e+00
  2.70063374e+00  2.70578286e+00  2.70692573e+00  2.70931306e+00
  2.72174673e+00  2.72321232e+00  2.72473361e+00  2.73188739e+00
  2.73376752e+00  2.73825306e+00  2.74166145e+00  2.74583552e+00
  2.74888656e+00  2.75090790e+00  2.75856361e+00  2.76055013e+00
  2.76659286e+00  2.76903199e+00  2.77533501e+00  2.78049520e+00
  2.78593108e+00  2.78901826e+00  2.79433750e+00  2.79499510e+00
  2.80267746e+00  2.80461818e+00  2.80781754e+00  2.81346286e+00
  2.81398875e+00  2.81780053e+00  2.82187043e+00  2.82555720e+00
  2.82816708e+00  2.83634239e+00  2.83914158e+00  2.84187847e+00
  2.84555541e+00  2.84896746e+00  2.85209504e+00  2.85474063e+00
  2.85658641e+00  2.86287152e+00  2.86424453e+00  2.86939200e+00
  2.87554638e+00  2.88019828e+00  2.88346786e+00  2.88691239e+00
  2.89137736e+00  2.89432481e+00  2.90050387e+00  2.90476273e+00
  2.90917642e+00  2.91033805e+00  2.91910084e+00  2.92632438e+00
  2.93763715e+00  2.94100028e+00  2.94816979e+00  2.95027951e+00
  2.95539499e+00  2.95806089e+00  2.96193581e+00  2.96502981e+00
  2.96937797e+00  2.97056824e+00  2.97582787e+00  2.98168906e+00
  2.98480197e+00  2.99134210e+00  2.99181145e+00  2.99651991e+00
  3.00260707e+00  3.00465788e+00  3.00660019e+00  3.01145382e+00
  3.01502355e+00  3.01778105e+00  3.02336774e+00  3.02369758e+00
  3.02790848e+00  3.02976620e+00  3.03706637e+00  3.04340790e+00
  3.04678915e+00  3.04956723e+00  3.05097262e+00  3.05253211e+00
  3.05723009e+00  3.05998685e+00  3.06396835e+00  3.06676767e+00
  3.07014780e+00  3.07545862e+00  3.07711113e+00  3.08270524e+00
  3.08296546e+00  3.08887012e+00  3.08994701e+00  3.09511389e+00
  3.09904200e+00  3.10357321e+00  3.10638376e+00  3.11022417e+00
  3.11361607e+00  3.11635220e+00  3.11894916e+00  3.12513047e+00
  3.12584799e+00  3.12745055e+00  3.13243455e+00  3.13809370e+00
  3.13984806e+00  3.14173433e+00  3.14566238e+00  3.14841917e+00
  3.15222089e+00  3.15553535e+00  3.15814535e+00  3.16127687e+00
  3.16571735e+00  3.16693267e+00  3.17018421e+00  3.17427337e+00
  3.17809412e+00  3.17882774e+00  3.18365625e+00  3.18931649e+00
  3.19090749e+00  3.19539911e+00  3.20147560e+00  3.20616078e+00
  3.20728059e+00  3.21211520e+00  3.21378481e+00  3.21661790e+00
  3.22066077e+00  3.22175778e+00  3.22558687e+00  3.23451799e+00
  3.23699591e+00  3.23887930e+00  3.24342235e+00  3.24584677e+00
  3.24837783e+00  3.25031818e+00  3.25216090e+00  3.25848997e+00
  3.26159825e+00  3.26417696e+00  3.26591032e+00  3.26719715e+00
  3.27245127e+00  3.27448420e+00  3.27774651e+00  3.28158040e+00
  3.28706257e+00  3.28780159e+00  3.28835980e+00  3.29284216e+00
  3.29427783e+00  3.30024993e+00  3.30307157e+00  3.30515103e+00
  3.30848446e+00  3.30936867e+00  3.31306559e+00  3.31440055e+00
  3.31784721e+00  3.32105568e+00  3.32469851e+00  3.32843222e+00
  3.33191982e+00  3.33537571e+00  3.33940945e+00  3.34303757e+00
  3.34420304e+00  3.34679885e+00  3.35406087e+00  3.35651987e+00
  3.35913107e+00  3.36343309e+00  3.36642050e+00  3.36821674e+00
  3.37251846e+00  3.37397562e+00  3.37624358e+00  3.38002644e+00
  3.38176086e+00  3.38523260e+00  3.38824749e+00  3.39350779e+00
  3.39435064e+00  3.39731618e+00  3.40331915e+00  3.40517392e+00
  3.40858654e+00  3.41127820e+00  3.41385706e+00  3.41633580e+00
  3.42041690e+00  3.42456973e+00  3.42868007e+00  3.42995659e+00
  3.43330567e+00  3.43743359e+00  3.44030946e+00  3.44305918e+00
  3.44891934e+00  3.45273622e+00  3.45547249e+00  3.46054058e+00
  3.46381620e+00  3.46571877e+00  3.47005410e+00  3.47341194e+00
  3.47784207e+00  3.48273118e+00  3.48511414e+00  3.48565203e+00
  3.49171493e+00  3.49208649e+00  3.49818978e+00  3.49861583e+00
  3.50350674e+00  3.50466310e+00  3.51544158e+00  3.51790869e+00
  3.52421064e+00  3.52869025e+00  3.53096329e+00  3.53335159e+00
  3.53662898e+00  3.54484140e+00  3.54839407e+00  3.55105923e+00
  3.55563160e+00  3.56172011e+00  3.56440548e+00  3.56673151e+00
  3.56983997e+00  3.57901751e+00  3.58474573e+00  3.58823311e+00
  3.59244056e+00  3.59476339e+00  3.60089518e+00  3.60291752e+00
  3.60736955e+00  3.61294804e+00  3.61763978e+00  3.62223611e+00
  3.62925357e+00  3.63155982e+00  3.63415090e+00  3.63675606e+00
  3.64431019e+00  3.64855468e+00  3.64995723e+00  3.65367364e+00
  3.66393863e+00  3.67220506e+00  3.67306205e+00  3.67769198e+00
  3.68271183e+00  3.69024262e+00  3.69449441e+00  3.69766718e+00
  3.70331362e+00  3.70888671e+00  3.71118402e+00  3.71753660e+00
  3.72292636e+00  3.72709885e+00  3.73216037e+00  3.73552603e+00
  3.73914032e+00  3.74085760e+00  3.74855712e+00  3.75190846e+00
  3.75699619e+00  3.75933346e+00  3.76113646e+00  3.76553973e+00
  3.76863428e+00  3.77596190e+00  3.78214047e+00  3.78803881e+00
  3.79063112e+00  3.79758386e+00  3.80023345e+00  3.80687979e+00
  3.81179227e+00  3.81779729e+00  3.82010929e+00  3.82065561e+00
  3.82963189e+00  3.83353940e+00  3.84244915e+00  3.84575461e+00
  3.85181785e+00  3.85358634e+00  3.86058257e+00  3.86646239e+00
  3.87275403e+00  3.88027606e+00  3.88455786e+00  3.89084936e+00
  3.89167614e+00  3.89777506e+00  3.90095427e+00  3.90486695e+00
  3.90856541e+00  3.91369649e+00  3.92222178e+00  3.92472894e+00
  3.93132370e+00  3.94159376e+00  3.94663095e+00  3.95232342e+00
  3.95410224e+00  3.96003496e+00  3.97075028e+00  3.97464280e+00
  3.97853134e+00  3.98128437e+00  3.98410214e+00  3.98788346e+00
  3.99541699e+00  3.99686771e+00  3.99978205e+00  4.01243720e+00
  4.01883402e+00  4.02191861e+00  4.03084101e+00  4.03713786e+00
  4.03804800e+00  4.04518398e+00  4.04676277e+00  4.06002258e+00
  4.06723682e+00  4.07376455e+00  4.07864949e+00  4.08516822e+00
  4.09107238e+00  4.09650252e+00  4.10210730e+00  4.11019015e+00
  4.11767111e+00  4.12302848e+00  4.13182288e+00  4.13419519e+00
  4.14227590e+00  4.14402003e+00  4.14746183e+00  4.15581995e+00
  4.16497337e+00  4.16705581e+00  4.18064169e+00  4.18167265e+00
  4.19332797e+00  4.19890790e+00  4.20296088e+00  4.20829294e+00
  4.21465140e+00  4.22226548e+00  4.22623678e+00  4.23812303e+00
  4.24320123e+00  4.24864700e+00  4.25187577e+00  4.26823328e+00
  4.27628796e+00  4.27730215e+00  4.29103310e+00  4.29224910e+00
  4.29845842e+00  4.30538998e+00  4.31030772e+00  4.32069340e+00
  4.33098676e+00  4.33516997e+00  4.35503775e+00  4.35751300e+00
  4.36133338e+00  4.36345185e+00  4.36538082e+00  4.37096036e+00
  4.38037825e+00  4.38413502e+00  4.38627144e+00  4.39455201e+00
  4.39989714e+00  4.40167883e+00  4.40824508e+00  4.41306972e+00
  4.41628104e+00  4.42812793e+00  4.42961446e+00  4.44430938e+00
  4.44863654e+00  4.45525911e+00  4.46030742e+00  4.46619505e+00
  4.47222400e+00  4.48094221e+00  4.48725536e+00  4.49399685e+00
  4.50366135e+00  4.51412657e+00  4.51981630e+00  4.52410677e+00
  4.53492964e+00  4.54432949e+00  4.54908241e+00  4.55115046e+00
  4.56127813e+00  4.56901765e+00  4.57336887e+00  4.57837507e+00
  4.58577675e+00  4.58928168e+00  4.59831985e+00  4.61338848e+00
  4.61976952e+00  4.62182902e+00  4.62921403e+00  4.63843152e+00
  4.64723305e+00  4.65465443e+00  4.66449760e+00  4.68250062e+00
  4.68520713e+00  4.69431518e+00  4.71144296e+00  4.71329509e+00
  4.73495485e+00  4.74375583e+00  4.74966279e+00  4.76215602e+00
  4.77439136e+00  4.78071408e+00  4.78989689e+00  4.79708541e+00
  4.80125625e+00  4.80637482e+00  4.81621142e+00  4.82785337e+00
  4.83165433e+00  4.83685969e+00  4.84654577e+00  4.85165868e+00
  4.86079774e+00  4.86309360e+00  4.86833987e+00  4.87252525e+00
  4.88645648e+00  4.88772556e+00  4.90638812e+00  4.91744801e+00
  4.92665614e+00  4.93172456e+00  4.94416312e+00  4.95198324e+00
  4.96412067e+00  4.97646462e+00  4.99080271e+00  4.99807132e+00
  5.00536324e+00  5.02134096e+00  5.02681865e+00  5.04857328e+00
  5.05281873e+00  5.06104476e+00  5.06977545e+00  5.08616056e+00
  5.09809621e+00  5.10668465e+00  5.11327410e+00  5.12316263e+00
  5.13114835e+00  5.13641255e+00  5.15006381e+00  5.15597849e+00
  5.16069909e+00  5.16759856e+00  5.16898012e+00  5.17387584e+00
  5.17607124e+00  5.17778206e+00  5.18961041e+00  5.19279695e+00
  5.20803077e+00  5.22113149e+00  5.22372422e+00  5.23198765e+00
  5.24065912e+00  5.24942967e+00  5.25262850e+00  5.25806654e+00
  5.26870629e+00  5.28243937e+00  5.29188274e+00  5.29547644e+00
  5.30438518e+00  5.31398970e+00  5.31748482e+00  5.32587827e+00
  5.32985080e+00  5.33906826e+00  5.34975831e+00  5.35166060e+00
  5.36181975e+00  5.36703799e+00  5.37100433e+00  5.37751157e+00
  5.39641158e+00  5.43541030e+00  5.44431595e+00  5.45971828e+00
  5.46401024e+00  5.47912908e+00  5.48372385e+00  5.50106524e+00
  5.51480894e+00  5.52923674e+00  5.57000630e+00  5.57795050e+00
  5.58978202e+00  5.59420218e+00  5.61085901e+00  5.61168865e+00
  5.65317315e+00  5.65813301e+00  5.67524089e+00  5.68924863e+00
  5.70946518e+00  5.72702310e+00  5.72949184e+00  5.73637571e+00
  5.76988218e+00  5.77703764e+00  5.77914797e+00  5.79308289e+00
  5.83899766e+00  5.85196692e+00  5.85944392e+00  5.90891482e+00
  5.91781562e+00  5.94279603e+00  5.94478171e+00  5.96354233e+00
  5.96807833e+00  6.02479342e+00  6.05578830e+00  6.08459158e+00
  6.09804014e+00  6.10793624e+00  6.12484136e+00  6.18502554e+00
  6.18919094e+00  6.21123531e+00  6.22918785e+00  6.25119626e+00
  6.31658018e+00  6.32764063e+00  6.37144261e+00  6.40345229e+00
  6.43161106e+00  6.43506066e+00  6.44005208e+00  6.44798584e+00
  6.47652733e+00  6.48281043e+00  6.53465697e+00  6.60928895e+00
  6.61804789e+00  6.64419343e+00  6.65456185e+00  6.68945939e+00
  6.69500934e+00  6.74660602e+00  6.74986333e+00  6.75800740e+00
  6.81363392e+00  6.82469146e+00  6.83811916e+00  6.86720725e+00
  6.89439191e+00  6.89815261e+00  6.90910291e+00  6.95761741e+00
  7.08099400e+00  7.09514571e+00  7.10962742e+00  7.13452707e+00
  7.13507323e+00  7.15342088e+00  7.15675017e+00  7.16400814e+00
  7.27342212e+00  7.32461936e+00  2.23802719e+01  2.23826876e+01
  2.24726071e+01  2.24767995e+01  2.24868333e+01  2.25473455e+01
  2.25646527e+01  2.25784978e+01  2.26052825e+01  2.26172547e+01
  2.26598214e+01  2.27055852e+01  2.27279323e+01  2.27391143e+01
  2.27671783e+01  2.27839755e+01  2.28027452e+01  2.28596889e+01
  2.28794557e+01  2.28939960e+01  2.30706531e+01  2.31286823e+01
  2.32532833e+01  2.33220266e+01  2.33294738e+01  2.33823954e+01
  2.34062361e+01  2.34242252e+01  2.34688186e+01  2.34721251e+01
  2.35492483e+01  2.36467092e+01  2.37948828e+01  3.25932221e+01
  3.26327516e+01  3.27357112e+01  3.27740614e+01  4.38945925e+01
  4.39599264e+01  4.40604334e+01  4.40848386e+01  4.41529288e+01
  4.41845550e+01]
nelec by numeric integration = 314.00196767654603
    CPU time for vxc    526.56 sec, wall time     35.28 sec
    CPU time for df vj and vk   4042.86 sec, wall time    303.12 sec
E1 = -13530.568261135719  Ecoul = 6389.161205549013  Exc = -271.16087700793855
cycle= 1 E= -1950.48154960048  delta_E= -0.000925  |g|= 0.000274  |ddm|= 0.0323
    CPU time for cycle= 1   4588.34 sec, wall time    340.85 sec
  HOMO = -0.198934744895244  LUMO = -0.0659855461828243
  mo_energy =
[-1.92886242e+01 -1.92602849e+01 -1.92309348e+01 -1.92125689e+01
 -1.91694722e+01 -1.91677521e+01 -1.44415092e+01 -1.44255538e+01
 -1.44140243e+01 -1.44073716e+01 -1.03921331e+01 -1.03717205e+01
 -1.03178130e+01 -1.02981602e+01 -1.02919320e+01 -1.02866611e+01
 -1.02770840e+01 -1.02676345e+01 -1.02663336e+01 -1.02657309e+01
 -1.02629711e+01 -1.02595463e+01 -1.02589312e+01 -1.02540576e+01
 -1.02534916e+01 -1.02517409e+01 -1.02516615e+01 -1.02499742e+01
 -1.02498471e+01 -1.02468948e+01 -1.02464384e+01 -1.02446402e+01
 -1.02355163e+01 -1.02333742e+01 -1.02318690e+01 -1.02224943e+01
 -1.02185762e+01 -1.02177198e+01 -1.02158480e+01 -1.02150703e+01
 -1.02128167e+01 -1.02100576e+01 -1.02090875e+01 -1.16886226e+00
 -1.14522776e+00 -1.07470079e+00 -1.05809171e+00 -1.05638794e+00
 -1.04021555e+00 -1.01448159e+00 -9.99920350e-01 -9.90762075e-01
 -9.71819712e-01 -8.67898824e-01 -8.62136050e-01 -8.54638790e-01
 -8.31035012e-01 -8.26485674e-01 -8.21753675e-01 -8.17570961e-01
 -8.03245055e-01 -7.96120223e-01 -7.81099299e-01 -7.68069845e-01
 -7.48230170e-01 -7.37647752e-01 -7.29844018e-01 -7.21235125e-01
 -7.11526603e-01 -7.04898329e-01 -6.91850562e-01 -6.82016264e-01
 -6.62989276e-01 -6.54475508e-01 -6.50771350e-01 -6.38788737e-01
 -6.35376160e-01 -6.20500665e-01 -6.07720656e-01 -5.96027302e-01
 -5.82426270e-01 -5.76161267e-01 -5.68339237e-01 -5.62447800e-01
 -5.59451246e-01 -5.51586249e-01 -5.50379229e-01 -5.48367179e-01
 -5.36799232e-01 -5.30586609e-01 -5.26333659e-01 -5.15178574e-01
 -5.14549222e-01 -5.04581084e-01 -4.97148456e-01 -4.91242434e-01
 -4.85281984e-01 -4.82195280e-01 -4.77020303e-01 -4.72864962e-01
 -4.68341430e-01 -4.65287893e-01 -4.61046393e-01 -4.59751276e-01
 -4.56550293e-01 -4.52089109e-01 -4.49945527e-01 -4.47035950e-01
 -4.40610693e-01 -4.38745192e-01 -4.35831464e-01 -4.33563666e-01
 -4.32388807e-01 -4.29207859e-01 -4.25998497e-01 -4.25034866e-01
 -4.20959060e-01 -4.19954169e-01 -4.16895708e-01 -4.15757285e-01
 -4.08480985e-01 -4.07882096e-01 -4.04386400e-01 -4.02216238e-01
 -4.02165776e-01 -3.97341534e-01 -3.95554575e-01 -3.90196401e-01
 -3.89090389e-01 -3.84461697e-01 -3.81499887e-01 -3.77239234e-01
 -3.76361459e-01 -3.75036160e-01 -3.71771257e-01 -3.70194860e-01
 -3.68279015e-01 -3.64092369e-01 -3.63172345e-01 -3.59322822e-01
 -3.52354827e-01 -3.46602331e-01 -3.45172049e-01 -3.41513169e-01
 -3.31451106e-01 -3.29661589e-01 -3.29019431e-01 -3.06960694e-01
 -2.73884764e-01 -2.73176846e-01 -2.66486927e-01 -2.57717633e-01
 -2.53355564e-01 -2.46880242e-01 -2.38396468e-01 -2.10903261e-01
 -1.98934745e-01 -6.59855462e-02 -4.13849451e-02 -2.47873330e-02
 -1.61574979e-02 -7.03733734e-04  1.46926629e-02  1.71312740e-02
  2.15202617e-02  3.02449580e-02  3.39040542e-02  3.56926936e-02
  4.29025481e-02  4.55679468e-02  5.16534924e-02  5.33374508e-02
  5.75255526e-02  6.17043274e-02  6.40889426e-02  6.51277577e-02
  7.36547222e-02  7.50589436e-02  7.71635252e-02  7.86623874e-02
  8.44012057e-02  8.81180075e-02  9.08037345e-02  9.16555946e-02
  9.56772089e-02  9.76789236e-02  1.00345483e-01  1.06171386e-01
  1.08264808e-01  1.08491512e-01  1.12604510e-01  1.15365312e-01
  1.18023162e-01  1.20687912e-01  1.24292506e-01  1.24511008e-01
  1.26387402e-01  1.28186366e-01  1.33361454e-01  1.35391782e-01
  1.36499148e-01  1.38032425e-01  1.42585728e-01  1.46359448e-01
  1.47355897e-01  1.51361980e-01  1.53917977e-01  1.54712926e-01
  1.56410039e-01  1.58462818e-01  1.59403017e-01  1.64211080e-01
  1.66273034e-01  1.71018121e-01  1.73037515e-01  1.73776856e-01
  1.75088926e-01  1.80759516e-01  1.82852057e-01  1.86055878e-01
  1.86553863e-01  1.88613414e-01  1.92544088e-01  1.94499897e-01
  1.97821874e-01  1.99126208e-01  2.02759778e-01  2.07797986e-01
  2.10090927e-01  2.11911289e-01  2.16943592e-01  2.17961172e-01
  2.21641193e-01  2.23062306e-01  2.26121857e-01  2.31473076e-01
  2.33891782e-01  2.35554087e-01  2.38368745e-01  2.39761122e-01
  2.40239458e-01  2.44561824e-01  2.48737744e-01  2.49842760e-01
  2.51625862e-01  2.53759914e-01  2.55802710e-01  2.57893323e-01
  2.59431598e-01  2.62026176e-01  2.66535908e-01  2.69854665e-01
  2.73066489e-01  2.73648444e-01  2.74688391e-01  2.79238777e-01
  2.80263471e-01  2.83315529e-01  2.86893297e-01  2.92325795e-01
  2.93189504e-01  2.96594418e-01  3.01337496e-01  3.02909720e-01
  3.05382832e-01  3.08334498e-01  3.09903232e-01  3.12256434e-01
  3.13973226e-01  3.17738215e-01  3.18869240e-01  3.21053827e-01
  3.25392825e-01  3.30047521e-01  3.33063639e-01  3.34340898e-01
  3.37288568e-01  3.38009199e-01  3.40835861e-01  3.42912454e-01
  3.46930045e-01  3.49041935e-01  3.50738950e-01  3.53101661e-01
  3.55732202e-01  3.60127669e-01  3.61254087e-01  3.63205819e-01
  3.64349978e-01  3.68491613e-01  3.69298456e-01  3.74418509e-01
  3.76865279e-01  3.78956756e-01  3.82758802e-01  3.87545228e-01
  3.90164140e-01  3.90781650e-01  3.91552840e-01  3.94830123e-01
  3.95919850e-01  3.96659109e-01  3.99795434e-01  4.01755962e-01
  4.03073312e-01  4.06528857e-01  4.07830916e-01  4.11355525e-01
  4.12444381e-01  4.13400436e-01  4.16164427e-01  4.17324294e-01
  4.18055363e-01  4.21444734e-01  4.23440842e-01  4.25882805e-01
  4.29117293e-01  4.30226155e-01  4.35039630e-01  4.35432365e-01
  4.35954812e-01  4.39229560e-01  4.40418491e-01  4.44379205e-01
  4.45803367e-01  4.47483788e-01  4.49627588e-01  4.50930522e-01
  4.54561339e-01  4.56921991e-01  4.59165040e-01  4.60560588e-01
  4.62552042e-01  4.66743855e-01  4.67057130e-01  4.68426200e-01
  4.70042300e-01  4.73712676e-01  4.74455388e-01  4.78855843e-01
  4.81579482e-01  4.82745501e-01  4.85598735e-01  4.88738536e-01
  4.90775486e-01  4.93114911e-01  4.95131812e-01  4.95681763e-01
  4.96608690e-01  4.99680658e-01  5.00554440e-01  5.04438682e-01
  5.08791956e-01  5.10089629e-01  5.13869130e-01  5.17074136e-01
  5.18512925e-01  5.20251386e-01  5.21957634e-01  5.23365969e-01
  5.25363703e-01  5.27625947e-01  5.28905730e-01  5.35149823e-01
  5.36448256e-01  5.36894314e-01  5.41222793e-01  5.45686251e-01
  5.46778771e-01  5.50629790e-01  5.53748297e-01  5.55868212e-01
  5.58768536e-01  5.60151859e-01  5.62708466e-01  5.67070351e-01
  5.68674358e-01  5.71039738e-01  5.73284765e-01  5.74125531e-01
  5.77919105e-01  5.78503594e-01  5.82412188e-01  5.84618556e-01
  5.91159420e-01  5.92869208e-01  5.95191289e-01  5.99136691e-01
  6.00505073e-01  6.01797332e-01  6.08196881e-01  6.12368448e-01
  6.15354169e-01  6.16942745e-01  6.18024003e-01  6.22646221e-01
  6.25875862e-01  6.27535405e-01  6.30602103e-01  6.33102612e-01
  6.36378881e-01  6.42411465e-01  6.44822292e-01  6.47163152e-01
  6.51846020e-01  6.55614721e-01  6.58066460e-01  6.59504471e-01
  6.63197269e-01  6.65256106e-01  6.67508202e-01  6.70402293e-01
  6.76303015e-01  6.79915765e-01  6.83366242e-01  6.84905618e-01
  6.88697919e-01  6.92099724e-01  6.97200565e-01  6.98946603e-01
  7.00555765e-01  7.04463131e-01  7.09317371e-01  7.10914487e-01
  7.12802787e-01  7.14316749e-01  7.21018594e-01  7.23322046e-01
  7.28784248e-01  7.29478888e-01  7.30625869e-01  7.38273220e-01
  7.45456437e-01  7.47158223e-01  7.50632114e-01  7.51832824e-01
  7.53652586e-01  7.58367314e-01  7.62066653e-01  7.68889817e-01
  7.70135468e-01  7.72832666e-01  7.78012507e-01  7.81548817e-01
  7.86034057e-01  7.91380452e-01  7.94002861e-01  7.99325646e-01
  8.00752750e-01  8.06499772e-01  8.07239369e-01  8.11177826e-01
  8.13668121e-01  8.14892187e-01  8.21392473e-01  8.22750348e-01
  8.25914898e-01  8.31897137e-01  8.34591184e-01  8.36234667e-01
  8.40452940e-01  8.48395440e-01  8.50719713e-01  8.55506591e-01
  8.59725695e-01  8.63608637e-01  8.65326934e-01  8.71359858e-01
  8.74121950e-01  8.75866442e-01  8.80521230e-01  8.85383767e-01
  8.87393159e-01  8.89482089e-01  8.93595889e-01  8.94682829e-01
  8.98990889e-01  9.04772348e-01  9.07244391e-01  9.10707055e-01
  9.16350233e-01  9.18618170e-01  9.21760203e-01  9.24057074e-01
  9.30856323e-01  9.35165152e-01  9.37220114e-01  9.40631394e-01
  9.44118520e-01  9.48595338e-01  9.55448289e-01  9.57331079e-01
  9.58502445e-01  9.62007260e-01  9.66364411e-01  9.71706518e-01
  9.74695845e-01  9.78976754e-01  9.82472347e-01  9.87661258e-01
  9.89001593e-01  9.91179705e-01  9.93110258e-01  9.98176902e-01
  1.00148542e+00  1.00541110e+00  1.01087075e+00  1.01217608e+00
  1.01526368e+00  1.01576910e+00  1.01834951e+00  1.02611143e+00
  1.02995093e+00  1.03350362e+00  1.03775853e+00  1.04185445e+00
  1.04554087e+00  1.04975248e+00  1.05340928e+00  1.05565484e+00
  1.06372195e+00  1.06661300e+00  1.07326610e+00  1.07652599e+00
  1.08266129e+00  1.08524340e+00  1.08550399e+00  1.09266734e+00
  1.09715285e+00  1.09812966e+00  1.10539504e+00  1.10628488e+00
  1.10809985e+00  1.11276780e+00  1.11516012e+00  1.11893641e+00
  1.12399105e+00  1.12780474e+00  1.13171940e+00  1.13488668e+00
  1.14063473e+00  1.14295406e+00  1.14813921e+00  1.15228933e+00
  1.15697512e+00  1.16164967e+00  1.16653195e+00  1.16838490e+00
  1.17165555e+00  1.17772435e+00  1.18033263e+00  1.18264913e+00
  1.18364826e+00  1.19086419e+00  1.19592586e+00  1.19985225e+00
  1.20049441e+00  1.20245195e+00  1.20695933e+00  1.21324739e+00
  1.21843936e+00  1.22383644e+00  1.22576744e+00  1.22847427e+00
  1.23278779e+00  1.23786537e+00  1.23937600e+00  1.24684832e+00
  1.24894176e+00  1.25541499e+00  1.26192454e+00  1.26653814e+00
  1.26988796e+00  1.27128520e+00  1.27766062e+00  1.27960876e+00
  1.28234103e+00  1.28625629e+00  1.29140703e+00  1.29881286e+00
  1.30253247e+00  1.30743773e+00  1.31194422e+00  1.31526546e+00
  1.32062666e+00  1.32244044e+00  1.32970315e+00  1.33011735e+00
  1.33444645e+00  1.33709469e+00  1.34664390e+00  1.34939571e+00
  1.35087226e+00  1.35246001e+00  1.35565227e+00  1.36074032e+00
  1.36671352e+00  1.37177949e+00  1.37682782e+00  1.38315541e+00
  1.38685461e+00  1.39120702e+00  1.39562443e+00  1.39786416e+00
  1.40568388e+00  1.41029480e+00  1.41394782e+00  1.41957889e+00
  1.42026635e+00  1.42845549e+00  1.43181208e+00  1.43417829e+00
  1.43661655e+00  1.44182323e+00  1.45103541e+00  1.45896572e+00
  1.46359855e+00  1.46441729e+00  1.46511336e+00  1.47096424e+00
  1.47635628e+00  1.48013785e+00  1.48334637e+00  1.48809582e+00
  1.49289510e+00  1.50053875e+00  1.50262125e+00  1.50846933e+00
  1.51192801e+00  1.51818919e+00  1.52129864e+00  1.52583384e+00
  1.53191935e+00  1.53478829e+00  1.53919417e+00  1.54272172e+00
  1.54374385e+00  1.54681777e+00  1.55098945e+00  1.55350265e+00
  1.55592129e+00  1.56211730e+00  1.56287563e+00  1.56791588e+00
  1.57052715e+00  1.57312993e+00  1.57564619e+00  1.57880062e+00
  1.58316610e+00  1.58456871e+00  1.58754660e+00  1.59049952e+00
  1.59636324e+00  1.60061054e+00  1.60179707e+00  1.60644407e+00
  1.60902236e+00  1.61359229e+00  1.61517201e+00  1.61713019e+00
  1.62355646e+00  1.62461463e+00  1.62681368e+00  1.63039068e+00
  1.63627234e+00  1.63918530e+00  1.64188827e+00  1.64893013e+00
  1.65165669e+00  1.65646778e+00  1.66068256e+00  1.66443551e+00
  1.66574643e+00  1.67230196e+00  1.67324841e+00  1.67482533e+00
  1.68019204e+00  1.68452386e+00  1.68780477e+00  1.69386443e+00
  1.69701810e+00  1.69783304e+00  1.70159821e+00  1.70711381e+00
  1.70854776e+00  1.71289873e+00  1.71660926e+00  1.71733850e+00
  1.72116649e+00  1.72563993e+00  1.72880632e+00  1.73246311e+00
  1.73504964e+00  1.73886314e+00  1.74388532e+00  1.74615166e+00
  1.75424864e+00  1.75733509e+00  1.75824168e+00  1.76765179e+00
  1.76820228e+00  1.77121390e+00  1.77455383e+00  1.78039115e+00
  1.78600795e+00  1.79317285e+00  1.79459853e+00  1.79881515e+00
  1.80537773e+00  1.80901720e+00  1.81626099e+00  1.82179167e+00
  1.82400205e+00  1.82971216e+00  1.83151411e+00  1.83661063e+00
  1.84022522e+00  1.84348001e+00  1.84841418e+00  1.84966385e+00
  1.85696164e+00  1.86085681e+00  1.86343303e+00  1.86993601e+00
  1.87236212e+00  1.87927838e+00  1.88540164e+00  1.88721416e+00
  1.88974756e+00  1.89330930e+00  1.89623157e+00  1.89742306e+00
  1.90582186e+00  1.90680221e+00  1.90778789e+00  1.91248816e+00
  1.92364454e+00  1.92449006e+00  1.92981038e+00  1.93470182e+00
  1.94009038e+00  1.94202544e+00  1.94554765e+00  1.95221118e+00
  1.95794160e+00  1.96010504e+00  1.96834890e+00  1.96978362e+00
  1.97172165e+00  1.97735319e+00  1.97775581e+00  1.98382557e+00
  1.98613181e+00  1.98904151e+00  1.99168682e+00  1.99995826e+00
  2.00371837e+00  2.00933133e+00  2.01183621e+00  2.01862449e+00
  2.02226600e+00  2.02359264e+00  2.02803604e+00  2.03269471e+00
  2.03668916e+00  2.04083934e+00  2.04458051e+00  2.04925786e+00
  2.05165067e+00  2.05544427e+00  2.05824798e+00  2.06647794e+00
  2.06757974e+00  2.07289708e+00  2.07789126e+00  2.08108726e+00
  2.08703799e+00  2.09064355e+00  2.09504231e+00  2.09747389e+00
  2.10340709e+00  2.11309161e+00  2.11392080e+00  2.11974874e+00
  2.12204618e+00  2.12585079e+00  2.12804553e+00  2.13552294e+00
  2.13989906e+00  2.14407276e+00  2.15221847e+00  2.15334440e+00
  2.15632387e+00  2.15819118e+00  2.16742108e+00  2.16848253e+00
  2.17589180e+00  2.18039494e+00  2.18901987e+00  2.19144969e+00
  2.19319679e+00  2.19737276e+00  2.19844285e+00  2.20372679e+00
  2.20867526e+00  2.21201189e+00  2.21350954e+00  2.21700162e+00
  2.21941372e+00  2.22533586e+00  2.23352306e+00  2.23989496e+00
  2.24075267e+00  2.24437511e+00  2.24888739e+00  2.25223466e+00
  2.25615395e+00  2.26444066e+00  2.26874696e+00  2.27158897e+00
  2.27834763e+00  2.28207592e+00  2.28452138e+00  2.28828868e+00
  2.29189478e+00  2.29587933e+00  2.29908383e+00  2.30792234e+00
  2.30832854e+00  2.31197767e+00  2.31558638e+00  2.32105879e+00
  2.32253336e+00  2.32854361e+00  2.33185253e+00  2.33741363e+00
  2.33936504e+00  2.34124428e+00  2.34830327e+00  2.35272490e+00
  2.35638093e+00  2.36391839e+00  2.36638057e+00  2.37242353e+00
  2.37344274e+00  2.37780339e+00  2.37916555e+00  2.38407648e+00
  2.38852636e+00  2.39521498e+00  2.39701395e+00  2.39835545e+00
  2.40446913e+00  2.40892715e+00  2.41449674e+00  2.41800032e+00
  2.42407460e+00  2.42467040e+00  2.43075828e+00  2.43413228e+00
  2.43684673e+00  2.44120894e+00  2.44470586e+00  2.45047743e+00
  2.45485956e+00  2.45611293e+00  2.45815485e+00  2.46051073e+00
  2.46492333e+00  2.46847529e+00  2.47237747e+00  2.47507773e+00
  2.47937720e+00  2.48564166e+00  2.49215329e+00  2.49467948e+00
  2.50604887e+00  2.50632367e+00  2.51083815e+00  2.51573574e+00
  2.52169214e+00  2.52688872e+00  2.52841363e+00  2.53683930e+00
  2.53908646e+00  2.54012956e+00  2.54539660e+00  2.54636804e+00
  2.54871462e+00  2.55546143e+00  2.55965768e+00  2.56171228e+00
  2.56455542e+00  2.56691507e+00  2.57612186e+00  2.57884669e+00
  2.58345061e+00  2.58615546e+00  2.59439409e+00  2.59532324e+00
  2.59775953e+00  2.60330966e+00  2.60420683e+00  2.60699748e+00
  2.61072048e+00  2.61789835e+00  2.61935685e+00  2.62108891e+00
  2.62725105e+00  2.62913923e+00  2.63267630e+00  2.63574100e+00
  2.64242277e+00  2.64782131e+00  2.64975271e+00  2.65274593e+00
  2.65598975e+00  2.65770102e+00  2.66075931e+00  2.66268765e+00
  2.66834397e+00  2.67467819e+00  2.68251074e+00  2.68668259e+00
  2.68865331e+00  2.68995115e+00  2.69501685e+00  2.69874360e+00
  2.70063399e+00  2.70578308e+00  2.70692653e+00  2.70931319e+00
  2.72174683e+00  2.72321266e+00  2.72473383e+00  2.73188759e+00
  2.73376906e+00  2.73825262e+00  2.74166140e+00  2.74583608e+00
  2.74888725e+00  2.75090505e+00  2.75856320e+00  2.76055022e+00
  2.76659299e+00  2.76903240e+00  2.77533586e+00  2.78049610e+00
  2.78593157e+00  2.78901946e+00  2.79433820e+00  2.79499535e+00
  2.80267784e+00  2.80461911e+00  2.80781844e+00  2.81346379e+00
  2.81398917e+00  2.81780108e+00  2.82187097e+00  2.82555777e+00
  2.82816754e+00  2.83634197e+00  2.83914188e+00  2.84187782e+00
  2.84555621e+00  2.84896850e+00  2.85209529e+00  2.85474104e+00
  2.85658682e+00  2.86287237e+00  2.86424455e+00  2.86939236e+00
  2.87554710e+00  2.88019899e+00  2.88346822e+00  2.88691321e+00
  2.89137735e+00  2.89432581e+00  2.90050470e+00  2.90476380e+00
  2.90917418e+00  2.91033827e+00  2.91910179e+00  2.92632158e+00
  2.93763775e+00  2.94100066e+00  2.94816945e+00  2.95027909e+00
  2.95539499e+00  2.95806047e+00  2.96193633e+00  2.96503046e+00
  2.96937797e+00  2.97056875e+00  2.97582767e+00  2.98168899e+00
  2.98480185e+00  2.99134303e+00  2.99181188e+00  2.99652012e+00
  3.00260535e+00  3.00465804e+00  3.00660007e+00  3.01145348e+00
  3.01502421e+00  3.01778123e+00  3.02336850e+00  3.02369835e+00
  3.02791000e+00  3.02976670e+00  3.03706667e+00  3.04340725e+00
  3.04678904e+00  3.04956793e+00  3.05097289e+00  3.05253291e+00
  3.05723061e+00  3.05998725e+00  3.06396910e+00  3.06676777e+00
  3.07014717e+00  3.07545900e+00  3.07711090e+00  3.08270590e+00
  3.08296616e+00  3.08886890e+00  3.08994742e+00  3.09511410e+00
  3.09904271e+00  3.10357374e+00  3.10638412e+00  3.11022476e+00
  3.11361555e+00  3.11635195e+00  3.11894992e+00  3.12513053e+00
  3.12584866e+00  3.12745104e+00  3.13243516e+00  3.13809516e+00
  3.13984776e+00  3.14173369e+00  3.14566325e+00  3.14841898e+00
  3.15222009e+00  3.15553559e+00  3.15814562e+00  3.16127767e+00
  3.16571742e+00  3.16693310e+00  3.17018487e+00  3.17427454e+00
  3.17809470e+00  3.17882825e+00  3.18365558e+00  3.18931709e+00
  3.19090806e+00  3.19539939e+00  3.20147562e+00  3.20616135e+00
  3.20728144e+00  3.21211601e+00  3.21378527e+00  3.21661828e+00
  3.22066099e+00  3.22175812e+00  3.22558529e+00  3.23451932e+00
  3.23699598e+00  3.23887982e+00  3.24342027e+00  3.24584782e+00
  3.24837806e+00  3.25031905e+00  3.25215981e+00  3.25849068e+00
  3.26159866e+00  3.26417533e+00  3.26591102e+00  3.26719800e+00
  3.27245197e+00  3.27448188e+00  3.27774661e+00  3.28158057e+00
  3.28706309e+00  3.28780062e+00  3.28835971e+00  3.29284233e+00
  3.29427771e+00  3.30024475e+00  3.30307044e+00  3.30514971e+00
  3.30848211e+00  3.30936855e+00  3.31306438e+00  3.31439930e+00
  3.31784763e+00  3.32105580e+00  3.32469908e+00  3.32843273e+00
  3.33191973e+00  3.33537484e+00  3.33940937e+00  3.34303854e+00
  3.34420314e+00  3.34679849e+00  3.35406139e+00  3.35651995e+00
  3.35913113e+00  3.36343274e+00  3.36642054e+00  3.36821763e+00
  3.37251891e+00  3.37397615e+00  3.37624337e+00  3.38002688e+00
  3.38176126e+00  3.38523227e+00  3.38824726e+00  3.39350816e+00
  3.39435054e+00  3.39731678e+00  3.40332011e+00  3.40517487e+00
  3.40858709e+00  3.41127848e+00  3.41385745e+00  3.41633767e+00
  3.42041732e+00  3.42456984e+00  3.42868047e+00  3.42995631e+00
  3.43330498e+00  3.43743433e+00  3.44030995e+00  3.44305967e+00
  3.44891980e+00  3.45273670e+00  3.45547208e+00  3.46054118e+00
  3.46381675e+00  3.46571958e+00  3.47005400e+00  3.47341229e+00
  3.47784235e+00  3.48273195e+00  3.48511495e+00  3.48565285e+00
  3.49171566e+00  3.49208730e+00  3.49819017e+00  3.49861640e+00
  3.50350736e+00  3.50466356e+00  3.51544188e+00  3.51790923e+00
  3.52421167e+00  3.52869083e+00  3.53096490e+00  3.53335314e+00
  3.53663013e+00  3.54484230e+00  3.54839457e+00  3.55106018e+00
  3.55563256e+00  3.56172057e+00  3.56440626e+00  3.56673287e+00
  3.56984085e+00  3.57901861e+00  3.58474703e+00  3.58823369e+00
  3.59244149e+00  3.59476369e+00  3.60089561e+00  3.60291716e+00
  3.60737017e+00  3.61294899e+00  3.61764007e+00  3.62223614e+00
  3.62925386e+00  3.63156079e+00  3.63415119e+00  3.63675700e+00
  3.64431051e+00  3.64855527e+00  3.64995832e+00  3.65367397e+00
  3.66393911e+00  3.67220585e+00  3.67306256e+00  3.67769279e+00
  3.68271266e+00  3.69024426e+00  3.69449455e+00  3.69766795e+00
  3.70331441e+00  3.70888718e+00  3.71118533e+00  3.71753718e+00
  3.72292737e+00  3.72709936e+00  3.73216062e+00  3.73552611e+00
  3.73914099e+00  3.74085799e+00  3.74855737e+00  3.75190949e+00
  3.75699649e+00  3.75933432e+00  3.76113727e+00  3.76554036e+00
  3.76863466e+00  3.77595999e+00  3.78214113e+00  3.78803736e+00
  3.79063164e+00  3.79758436e+00  3.80023333e+00  3.80687964e+00
  3.81179212e+00  3.81779766e+00  3.82009888e+00  3.82065488e+00
  3.82963035e+00  3.83353927e+00  3.84244836e+00  3.84575376e+00
  3.85181807e+00  3.85358726e+00  3.86058278e+00  3.86646310e+00
  3.87275482e+00  3.88027654e+00  3.88455647e+00  3.89084946e+00
  3.89167658e+00  3.89777520e+00  3.90095487e+00  3.90486720e+00
  3.90856606e+00  3.91369641e+00  3.92222076e+00  3.92472818e+00
  3.93132432e+00  3.94159404e+00  3.94663080e+00  3.95232362e+00
  3.95410265e+00  3.96003534e+00  3.97075058e+00  3.97464353e+00
  3.97853120e+00  3.98128463e+00  3.98410283e+00  3.98788392e+00
  3.99541753e+00  3.99686820e+00  3.99978284e+00  4.01243826e+00
  4.01883438e+00  4.02191897e+00  4.03084137e+00  4.03713850e+00
  4.03804864e+00  4.04518383e+00  4.04676258e+00  4.06002220e+00
  4.06723797e+00  4.07376505e+00  4.07865007e+00  4.08516896e+00
  4.09107308e+00  4.09650323e+00  4.10210837e+00  4.11019110e+00
  4.11767236e+00  4.12302847e+00  4.13182355e+00  4.13419524e+00
  4.14227588e+00  4.14401994e+00  4.14746270e+00  4.15581975e+00
  4.16497419e+00  4.16705620e+00  4.18064108e+00  4.18167360e+00
  4.19332893e+00  4.19890880e+00  4.20296137e+00  4.20829278e+00
  4.21465189e+00  4.22226684e+00  4.22623708e+00  4.23812360e+00
  4.24320176e+00  4.24864823e+00  4.25187579e+00  4.26823411e+00
  4.27628893e+00  4.27730254e+00  4.29103428e+00  4.29224877e+00
  4.29845933e+00  4.30539029e+00  4.31030748e+00  4.32069195e+00
  4.33098749e+00  4.33516985e+00  4.35503835e+00  4.35751330e+00
  4.36133445e+00  4.36345265e+00  4.36538146e+00  4.37096099e+00
  4.38037898e+00  4.38413544e+00  4.38627167e+00  4.39455369e+00
  4.39989895e+00  4.40167897e+00  4.40824575e+00  4.41306990e+00
  4.41628189e+00  4.42812865e+00  4.42961496e+00  4.44431028e+00
  4.44863758e+00  4.45525760e+00  4.46030492e+00  4.46619311e+00
  4.47222259e+00  4.48094155e+00  4.48724798e+00  4.49399431e+00
  4.50366168e+00  4.51412684e+00  4.51981697e+00  4.52410644e+00
  4.53492538e+00  4.54433005e+00  4.54907943e+00  4.55114830e+00
  4.56127863e+00  4.56901763e+00  4.57336918e+00  4.57837291e+00
  4.58577716e+00  4.58928244e+00  4.59831991e+00  4.61338853e+00
  4.61976769e+00  4.62182899e+00  4.62921102e+00  4.63843216e+00
  4.64723365e+00  4.65465547e+00  4.66449864e+00  4.68250035e+00
  4.68520767e+00  4.69431580e+00  4.71144329e+00  4.71329611e+00
  4.73495581e+00  4.74375639e+00  4.74966373e+00  4.76215714e+00
  4.77439214e+00  4.78071573e+00  4.78989808e+00  4.79708663e+00
  4.80125750e+00  4.80637580e+00  4.81621221e+00  4.82785322e+00
  4.83165532e+00  4.83686088e+00  4.84654669e+00  4.85165951e+00
  4.86079944e+00  4.86309467e+00  4.86834162e+00  4.87252771e+00
  4.88645692e+00  4.88772719e+00  4.90638894e+00  4.91744911e+00
  4.92665693e+00  4.93172564e+00  4.94416477e+00  4.95198551e+00
  4.96412224e+00  4.97646583e+00  4.99080499e+00  4.99807313e+00
  5.00536395e+00  5.02134233e+00  5.02681998e+00  5.04857430e+00
  5.05281999e+00  5.06104620e+00  5.06977595e+00  5.08616163e+00
  5.09809711e+00  5.10668528e+00  5.11327517e+00  5.12314901e+00
  5.13114298e+00  5.13641282e+00  5.15006472e+00  5.15597820e+00
  5.16070487e+00  5.16760377e+00  5.16898403e+00  5.17387538e+00
  5.17606938e+00  5.17777051e+00  5.18961307e+00  5.19279941e+00
  5.20803281e+00  5.22113506e+00  5.22372736e+00  5.23198995e+00
  5.24066376e+00  5.24943201e+00  5.25262943e+00  5.25806909e+00
  5.26870837e+00  5.28244019e+00  5.29188568e+00  5.29547737e+00
  5.30438704e+00  5.31399133e+00  5.31748598e+00  5.32588006e+00
  5.32985206e+00  5.33907044e+00  5.34975715e+00  5.35161683e+00
  5.36182001e+00  5.36700482e+00  5.37098811e+00  5.37751233e+00
  5.39641285e+00  5.43541120e+00  5.44431648e+00  5.45971851e+00
  5.46401092e+00  5.47912987e+00  5.48369570e+00  5.50106672e+00
  5.51481031e+00  5.52923810e+00  5.57000724e+00  5.57793845e+00
  5.58978275e+00  5.59420654e+00  5.61086060e+00  5.61169024e+00
  5.65317662e+00  5.65813602e+00  5.67524335e+00  5.68925105e+00
  5.70946548e+00  5.72699624e+00  5.72949319e+00  5.73637635e+00
  5.76988390e+00  5.77703947e+00  5.77915006e+00  5.79308515e+00
  5.83899267e+00  5.85193860e+00  5.85940354e+00  5.90891337e+00
  5.91781642e+00  5.94279687e+00  5.94478419e+00  5.96354404e+00
  5.96807889e+00  6.02479604e+00  6.05579019e+00  6.08459275e+00
  6.09804253e+00  6.10793376e+00  6.12484530e+00  6.18502401e+00
  6.18915767e+00  6.21123703e+00  6.22918810e+00  6.25119948e+00
  6.31656297e+00  6.32761799e+00  6.37144562e+00  6.40345560e+00
  6.43161838e+00  6.43506092e+00  6.44005224e+00  6.44795646e+00
  6.47653125e+00  6.48281340e+00  6.53466265e+00  6.60928916e+00
  6.61805225e+00  6.64419989e+00  6.65450416e+00  6.68943654e+00
  6.69496276e+00  6.74660816e+00  6.74985899e+00  6.75797709e+00
  6.81363427e+00  6.82469762e+00  6.83812483e+00  6.86721363e+00
  6.89433315e+00  6.89815276e+00  6.90910473e+00  6.95761887e+00
  7.08099606e+00  7.09515172e+00  7.10963441e+00  7.13452718e+00
  7.13506365e+00  7.15342111e+00  7.15675600e+00  7.16401391e+00
  7.27336299e+00  7.32461871e+00  2.23802709e+01  2.23826870e+01
  2.24726059e+01  2.24768004e+01  2.24868329e+01  2.25473476e+01
  2.25646538e+01  2.25784984e+01  2.26052805e+01  2.26172552e+01
  2.26598243e+01  2.27055867e+01  2.27279337e+01  2.27391158e+01
  2.27671790e+01  2.27839748e+01  2.28027463e+01  2.28596906e+01
  2.28794582e+01  2.28939981e+01  2.30706523e+01  2.31286834e+01
  2.32533109e+01  2.33220261e+01  2.33294737e+01  2.33823926e+01
  2.34062374e+01  2.34242219e+01  2.34688174e+01  2.34721232e+01
  2.35492492e+01  2.36467096e+01  2.37948782e+01  3.25932228e+01
  3.26327539e+01  3.27357198e+01  3.27740688e+01  4.38944536e+01
  4.39599331e+01  4.40604359e+01  4.40848515e+01  4.41529290e+01
  4.41845590e+01]
nelec by numeric integration = 314.0019684454163
    CPU time for vxc    534.01 sec, wall time     36.08 sec
    CPU time for df vj and vk   4061.66 sec, wall time    299.58 sec
E1 = -13530.568415141432  Ecoul = 6389.161456857318  Exc = -271.16097430573825
cycle= 2 E= -1950.48154959569  delta_E= 4.79e-09  |g|= 0.000303  |ddm|= 0.000717
    CPU time for cycle= 2   4619.63 sec, wall time    338.09 sec
  HOMO = -0.198935436320156  LUMO = -0.0659866537727019
  mo_energy =
[-1.92884851e+01 -1.92602794e+01 -1.92309674e+01 -1.92125859e+01
 -1.91694851e+01 -1.91677516e+01 -1.44415180e+01 -1.44255567e+01
 -1.44140323e+01 -1.44073719e+01 -1.03921525e+01 -1.03717224e+01
 -1.03178131e+01 -1.02981521e+01 -1.02919348e+01 -1.02866617e+01
 -1.02770906e+01 -1.02676319e+01 -1.02663384e+01 -1.02657356e+01
 -1.02629743e+01 -1.02595485e+01 -1.02589368e+01 -1.02540605e+01
 -1.02534955e+01 -1.02517411e+01 -1.02516654e+01 -1.02499785e+01
 -1.02498492e+01 -1.02468944e+01 -1.02464367e+01 -1.02446357e+01
 -1.02355114e+01 -1.02333675e+01 -1.02318701e+01 -1.02224953e+01
 -1.02185757e+01 -1.02177175e+01 -1.02158460e+01 -1.02150597e+01
 -1.02128159e+01 -1.02100563e+01 -1.02090871e+01 -1.16883402e+00
 -1.14523042e+00 -1.07469555e+00 -1.05809704e+00 -1.05638793e+00
 -1.04021749e+00 -1.01448414e+00 -9.99922143e-01 -9.90766954e-01
 -9.71820198e-01 -8.67897127e-01 -8.62139167e-01 -8.54640484e-01
 -8.31035397e-01 -8.26487423e-01 -8.21753751e-01 -8.17571010e-01
 -8.03246354e-01 -7.96121198e-01 -7.81099678e-01 -7.68069698e-01
 -7.48230539e-01 -7.37647770e-01 -7.29843505e-01 -7.21235504e-01
 -7.11525685e-01 -7.04897670e-01 -6.91848454e-01 -6.82013031e-01
 -6.62990195e-01 -6.54469511e-01 -6.50771489e-01 -6.38780238e-01
 -6.35375512e-01 -6.20501728e-01 -6.07721345e-01 -5.96030075e-01
 -5.82426136e-01 -5.76162101e-01 -5.68339872e-01 -5.62448938e-01
 -5.59452736e-01 -5.51589600e-01 -5.50378710e-01 -5.48367988e-01
 -5.36799836e-01 -5.30584303e-01 -5.26329341e-01 -5.15179068e-01
 -5.14550189e-01 -5.04575332e-01 -4.97149191e-01 -4.91244173e-01
 -4.85282520e-01 -4.82195453e-01 -4.77017460e-01 -4.72864592e-01
 -4.68342553e-01 -4.65289529e-01 -4.61043154e-01 -4.59749191e-01
 -4.56550620e-01 -4.52089457e-01 -4.49945985e-01 -4.47031139e-01
 -4.40611263e-01 -4.38745470e-01 -4.35829521e-01 -4.33565499e-01
 -4.32388940e-01 -4.29207463e-01 -4.25998366e-01 -4.25034931e-01
 -4.20959034e-01 -4.19954244e-01 -4.16895487e-01 -4.15757120e-01
 -4.08479752e-01 -4.07881592e-01 -4.04387286e-01 -4.02216700e-01
 -4.02165973e-01 -3.97341992e-01 -3.95555488e-01 -3.90195926e-01
 -3.89090318e-01 -3.84462867e-01 -3.81500184e-01 -3.77240997e-01
 -3.76362016e-01 -3.75037631e-01 -3.71765040e-01 -3.70192558e-01
 -3.68276634e-01 -3.64092328e-01 -3.63171846e-01 -3.59322811e-01
 -3.52356939e-01 -3.46606034e-01 -3.45171981e-01 -3.41514694e-01
 -3.31451774e-01 -3.29667510e-01 -3.29022368e-01 -3.06967140e-01
 -2.73885024e-01 -2.73177547e-01 -2.66487057e-01 -2.57716811e-01
 -2.53356711e-01 -2.46881740e-01 -2.38396747e-01 -2.10904241e-01
 -1.98935436e-01 -6.59866538e-02 -4.13853312e-02 -2.47878638e-02
 -1.61613670e-02 -7.03686517e-04  1.46920229e-02  1.71301895e-02
  2.15252592e-02  3.02456653e-02  3.39046603e-02  3.56926702e-02
  4.29021967e-02  4.55674650e-02  5.16533409e-02  5.33374260e-02
  5.75240031e-02  6.17045452e-02  6.40891177e-02  6.51264708e-02
  7.36547379e-02  7.50584726e-02  7.71628378e-02  7.86620144e-02
  8.44011342e-02  8.81172417e-02  9.08026961e-02  9.16544271e-02
  9.56769781e-02  9.76784883e-02  1.00344448e-01  1.06171433e-01
  1.08264473e-01  1.08490288e-01  1.12604351e-01  1.15364195e-01
  1.18023282e-01  1.20687037e-01  1.24291808e-01  1.24510472e-01
  1.26386908e-01  1.28185768e-01  1.33360731e-01  1.35391500e-01
  1.36498361e-01  1.38031485e-01  1.42585682e-01  1.46359060e-01
  1.47354814e-01  1.51361595e-01  1.53917872e-01  1.54712448e-01
  1.56409558e-01  1.58462258e-01  1.59403210e-01  1.64211399e-01
  1.66273080e-01  1.71017306e-01  1.73036637e-01  1.73776372e-01
  1.75088749e-01  1.80759466e-01  1.82851458e-01  1.86055498e-01
  1.86553568e-01  1.88612822e-01  1.92543984e-01  1.94498700e-01
  1.97822659e-01  1.99125862e-01  2.02759066e-01  2.07797067e-01
  2.10090698e-01  2.11910829e-01  2.16943101e-01  2.17960398e-01
  2.21643609e-01  2.23061289e-01  2.26121662e-01  2.31472074e-01
  2.33891646e-01  2.35553879e-01  2.38367863e-01  2.39760360e-01
  2.40238668e-01  2.44560549e-01  2.48736976e-01  2.49842437e-01
  2.51625210e-01  2.53759432e-01  2.55802268e-01  2.57892657e-01
  2.59431097e-01  2.62025991e-01  2.66535524e-01  2.69853988e-01
  2.73065565e-01  2.73647655e-01  2.74688280e-01  2.79238375e-01
  2.80262643e-01  2.83314967e-01  2.86892689e-01  2.92324948e-01
  2.93189484e-01  2.96593808e-01  3.01337680e-01  3.02910142e-01
  3.05381911e-01  3.08334572e-01  3.09902714e-01  3.12256288e-01
  3.13973942e-01  3.17739162e-01  3.18868815e-01  3.21053183e-01
  3.25391943e-01  3.30046819e-01  3.33062860e-01  3.34340628e-01
  3.37288146e-01  3.38009770e-01  3.40835689e-01  3.42915567e-01
  3.46930035e-01  3.49042051e-01  3.50738922e-01  3.53101136e-01
  3.55731181e-01  3.60126767e-01  3.61255048e-01  3.63205379e-01
  3.64349610e-01  3.68490916e-01  3.69297977e-01  3.74418695e-01
  3.76864568e-01  3.78956327e-01  3.82758453e-01  3.87544949e-01
  3.90163298e-01  3.90781167e-01  3.91552552e-01  3.94829119e-01
  3.95919315e-01  3.96658659e-01  3.99795026e-01  4.01755362e-01
  4.03072900e-01  4.06529988e-01  4.07830691e-01  4.11355009e-01
  4.12444072e-01  4.13398930e-01  4.16163962e-01  4.17324261e-01
  4.18054422e-01  4.21444097e-01  4.23440523e-01  4.25882885e-01
  4.29116502e-01  4.30225659e-01  4.35039085e-01  4.35432307e-01
  4.35954751e-01  4.39229080e-01  4.40418554e-01  4.44379557e-01
  4.45803719e-01  4.47483962e-01  4.49627228e-01  4.50930310e-01
  4.54561016e-01  4.56922764e-01  4.59164614e-01  4.60560317e-01
  4.62552661e-01  4.66743729e-01  4.67057106e-01  4.68426365e-01
  4.70042072e-01  4.73712570e-01  4.74455147e-01  4.78855168e-01
  4.81579840e-01  4.82745947e-01  4.85600981e-01  4.88739754e-01
  4.90775373e-01  4.93114325e-01  4.95132364e-01  4.95683591e-01
  4.96608548e-01  4.99681041e-01  5.00554343e-01  5.04438675e-01
  5.08791287e-01  5.10089247e-01  5.13869443e-01  5.17073618e-01
  5.18512315e-01  5.20251410e-01  5.21956765e-01  5.23365192e-01
  5.25363591e-01  5.27626752e-01  5.28905052e-01  5.35149231e-01
  5.36447650e-01  5.36895355e-01  5.41221048e-01  5.45686371e-01
  5.46779668e-01  5.50629170e-01  5.53747499e-01  5.55867832e-01
  5.58768020e-01  5.60151378e-01  5.62708429e-01  5.67070022e-01
  5.68674030e-01  5.71039360e-01  5.73283638e-01  5.74125207e-01
  5.77918573e-01  5.78502885e-01  5.82411509e-01  5.84617793e-01
  5.91159355e-01  5.92868385e-01  5.95190827e-01  5.99135828e-01
  6.00504713e-01  6.01796538e-01  6.08196074e-01  6.12367843e-01
  6.15354048e-01  6.16942538e-01  6.18022539e-01  6.22645351e-01
  6.25874841e-01  6.27535334e-01  6.30601242e-01  6.33101568e-01
  6.36378353e-01  6.42410871e-01  6.44821734e-01  6.47162518e-01
  6.51845359e-01  6.55613363e-01  6.58066465e-01  6.59504024e-01
  6.63196810e-01  6.65255118e-01  6.67507313e-01  6.70401554e-01
  6.76302781e-01  6.79914875e-01  6.83365544e-01  6.84905340e-01
  6.88697491e-01  6.92099207e-01  6.97198853e-01  6.98945565e-01
  7.00554703e-01  7.04463417e-01  7.09316675e-01  7.10913674e-01
  7.12802111e-01  7.14316618e-01  7.21017683e-01  7.23321834e-01
  7.28785009e-01  7.29478707e-01  7.30625478e-01  7.38272657e-01
  7.45455743e-01  7.47157516e-01  7.50631725e-01  7.51831794e-01
  7.53652138e-01  7.58366635e-01  7.62065745e-01  7.68889145e-01
  7.70134392e-01  7.72832431e-01  7.78011496e-01  7.81547979e-01
  7.86033455e-01  7.91379414e-01  7.94002375e-01  7.99325326e-01
  8.00751809e-01  8.06498928e-01  8.07238298e-01  8.11177189e-01
  8.13667195e-01  8.14891442e-01  8.21391543e-01  8.22749114e-01
  8.25913611e-01  8.31896717e-01  8.34590836e-01  8.36233617e-01
  8.40452106e-01  8.48394724e-01  8.50719382e-01  8.55505919e-01
  8.59725327e-01  8.63607784e-01  8.65326355e-01  8.71358773e-01
  8.74120373e-01  8.75865825e-01  8.80519762e-01  8.85383133e-01
  8.87391783e-01  8.89480920e-01  8.93595273e-01  8.94681950e-01
  8.98990097e-01  9.04771946e-01  9.07243335e-01  9.10705976e-01
  9.16350224e-01  9.18617809e-01  9.21759443e-01  9.24057131e-01
  9.30856681e-01  9.35164702e-01  9.37222552e-01  9.40631081e-01
  9.44117695e-01  9.48595170e-01  9.55448805e-01  9.57330346e-01
  9.58501731e-01  9.62006702e-01  9.66363837e-01  9.71705682e-01
  9.74695381e-01  9.78976497e-01  9.82471809e-01  9.87660668e-01
  9.89001333e-01  9.91178525e-01  9.93109925e-01  9.98176018e-01
  1.00148525e+00  1.00541103e+00  1.01087036e+00  1.01217568e+00
  1.01526314e+00  1.01576845e+00  1.01834935e+00  1.02611057e+00
  1.02995052e+00  1.03350354e+00  1.03775724e+00  1.04185371e+00
  1.04554010e+00  1.04975192e+00  1.05340853e+00  1.05565362e+00
  1.06372126e+00  1.06661287e+00  1.07326533e+00  1.07652532e+00
  1.08266092e+00  1.08524347e+00  1.08550373e+00  1.09266659e+00
  1.09715260e+00  1.09812898e+00  1.10539466e+00  1.10628433e+00
  1.10809967e+00  1.11276779e+00  1.11515997e+00  1.11893614e+00
[...]
  2.53908630e+00  2.54012955e+00  2.54539636e+00  2.54636682e+00
  2.54871401e+00  2.55546247e+00  2.55965743e+00  2.56171208e+00
  2.56455508e+00  2.56691448e+00  2.57612094e+00  2.57884621e+00
  2.58345024e+00  2.58615761e+00  2.59439418e+00  2.59532359e+00
  2.59775902e+00  2.60330995e+00  2.60420606e+00  2.60699728e+00
  2.61072023e+00  2.61789904e+00  2.61935717e+00  2.62108868e+00
  2.62725205e+00  2.62913960e+00  2.63267608e+00  2.63574235e+00
  2.64242212e+00  2.64782065e+00  2.64975272e+00  2.65274536e+00
  2.65598882e+00  2.65770242e+00  2.66076404e+00  2.66268717e+00
  2.66834430e+00  2.67467816e+00  2.68251372e+00  2.68668276e+00
  2.68865335e+00  2.68995224e+00  2.69501641e+00  2.69874350e+00
  2.70063378e+00  2.70578271e+00  2.70692587e+00  2.70931292e+00
  2.72174673e+00  2.72321235e+00  2.72473357e+00  2.73188740e+00
  2.73376781e+00  2.73825271e+00  2.74166138e+00  2.74583565e+00
  2.74888670e+00  2.75090690e+00  2.75856343e+00  2.76055006e+00
  2.76659286e+00  2.76903204e+00  2.77533514e+00  2.78049547e+00
  2.78593110e+00  2.78901848e+00  2.79433762e+00  2.79499511e+00
  2.80267753e+00  2.80461834e+00  2.80781769e+00  2.81346317e+00
  2.81398879e+00  2.81780063e+00  2.82187035e+00  2.82555729e+00
  2.82816712e+00  2.83634221e+00  2.83914172e+00  2.84187837e+00
  2.84555550e+00  2.84896764e+00  2.85209504e+00  2.85474070e+00
  2.85658648e+00  2.86287166e+00  2.86424442e+00  2.86939195e+00
  2.87554648e+00  2.88019839e+00  2.88346785e+00  2.88691252e+00
  2.89137735e+00  2.89432496e+00  2.90050401e+00  2.90476293e+00
  2.90917591e+00  2.91033794e+00  2.91910102e+00  2.92632395e+00
  2.93763719e+00  2.94100027e+00  2.94816913e+00  2.95027901e+00
  2.95539457e+00  2.95806041e+00  2.96193573e+00  2.96502978e+00
  2.96937788e+00  2.97056823e+00  2.97582748e+00  2.98168887e+00
  2.98480142e+00  2.99134238e+00  2.99181126e+00  2.99651953e+00
  3.00260515e+00  3.00465765e+00  3.00660010e+00  3.01145345e+00
  3.01502366e+00  3.01778107e+00  3.02336788e+00  3.02369776e+00
  3.02790952e+00  3.02976656e+00  3.03706628e+00  3.04340764e+00
  3.04678924e+00  3.04956741e+00  3.05097272e+00  3.05253259e+00
  3.05723016e+00  3.05998693e+00  3.06396851e+00  3.06676754e+00
  3.07014755e+00  3.07545874e+00  3.07711075e+00  3.08270534e+00
  3.08296561e+00  3.08886958e+00  3.08994734e+00  3.09511376e+00
  3.09904243e+00  3.10357337e+00  3.10638380e+00  3.11022431e+00
  3.11361563e+00  3.11635203e+00  3.11894929e+00  3.12513042e+00
  3.12584819e+00  3.12745067e+00  3.13243475e+00  3.13809438e+00
  3.13984793e+00  3.14173384e+00  3.14566268e+00  3.14841885e+00
  3.15222026e+00  3.15553517e+00  3.15814546e+00  3.16127683e+00
  3.16571731e+00  3.16693256e+00  3.17018442e+00  3.17427359e+00
  3.17809410e+00  3.17882783e+00  3.18365577e+00  3.18931634e+00
  3.19090761e+00  3.19539910e+00  3.20147539e+00  3.20616070e+00
  3.20728075e+00  3.21211555e+00  3.21378480e+00  3.21661767e+00
  3.22066067e+00  3.22175765e+00  3.22558616e+00  3.23451829e+00
  3.23699563e+00  3.23887935e+00  3.24342154e+00  3.24584693e+00
  3.24837767e+00  3.25031822e+00  3.25216047e+00  3.25849007e+00
  3.26159820e+00  3.26417622e+00  3.26591047e+00  3.26719730e+00
  3.27245140e+00  3.27448317e+00  3.27774642e+00  3.28158038e+00
  3.28706268e+00  3.28780100e+00  3.28835944e+00  3.29284215e+00
  3.29427759e+00  3.30024686e+00  3.30307077e+00  3.30515022e+00
  3.30848299e+00  3.30936821e+00  3.31306473e+00  3.31439992e+00
  3.31784725e+00  3.32105566e+00  3.32469848e+00  3.32843242e+00
  3.33191951e+00  3.33537482e+00  3.33940929e+00  3.34303800e+00
  3.34420298e+00  3.34679835e+00  3.35406084e+00  3.35652004e+00
  3.35913089e+00  3.36343286e+00  3.36642027e+00  3.36821691e+00
  3.37251880e+00  3.37397604e+00  3.37624317e+00  3.38002706e+00
  3.38176062e+00  3.38523277e+00  3.38824741e+00  3.39350793e+00
  3.39435061e+00  3.39731632e+00  3.40331911e+00  3.40517410e+00
  3.40858647e+00  3.41127812e+00  3.41385710e+00  3.41633651e+00
  3.42041687e+00  3.42456960e+00  3.42868008e+00  3.42995653e+00
  3.43330527e+00  3.43743379e+00  3.44030952e+00  3.44305925e+00
  3.44891947e+00  3.45273634e+00  3.45547180e+00  3.46054067e+00
  3.46381622e+00  3.46571895e+00  3.47005384e+00  3.47341186e+00
  3.47784195e+00  3.48273134e+00  3.48511391e+00  3.48565218e+00
  3.49171469e+00  3.49208663e+00  3.49818981e+00  3.49861599e+00
  3.50350683e+00  3.50466316e+00  3.51544162e+00  3.51790866e+00
  3.52421083e+00  3.52869037e+00  3.53096374e+00  3.53335212e+00
  3.53662921e+00  3.54484156e+00  3.54839414e+00  3.55105934e+00
  3.55563181e+00  3.56172015e+00  3.56440569e+00  3.56673178e+00
  3.56984007e+00  3.57901760e+00  3.58474586e+00  3.58823306e+00
  3.59244076e+00  3.59476335e+00  3.60089505e+00  3.60291736e+00
  3.60736945e+00  3.61294816e+00  3.61763975e+00  3.62223603e+00
  3.62925361e+00  3.63155981e+00  3.63415084e+00  3.63675591e+00
  3.64431013e+00  3.64855458e+00  3.64995742e+00  3.65367365e+00
  3.66393859e+00  3.67220519e+00  3.67306200e+00  3.67769213e+00
  3.68271183e+00  3.69024279e+00  3.69449401e+00  3.69766730e+00
  3.70331358e+00  3.70888650e+00  3.71118421e+00  3.71753663e+00
  3.72292653e+00  3.72709866e+00  3.73216029e+00  3.73552596e+00
  3.73914042e+00  3.74085766e+00  3.74855694e+00  3.75190851e+00
  3.75699594e+00  3.75933357e+00  3.76113658e+00  3.76553977e+00
  3.76863399e+00  3.77596070e+00  3.78214048e+00  3.78803778e+00
  3.79063083e+00  3.79758391e+00  3.80023301e+00  3.80687945e+00
  3.81179192e+00  3.81779735e+00  3.82010435e+00  3.82065510e+00
  3.82963103e+00  3.83353921e+00  3.84244842e+00  3.84575390e+00
  3.85181789e+00  3.85358645e+00  3.86058262e+00  3.86646247e+00
  3.87275422e+00  3.88027615e+00  3.88455713e+00  3.89084921e+00
  3.89167620e+00  3.89777483e+00  3.90095423e+00  3.90486690e+00
  3.90856551e+00  3.91369610e+00  3.92222108e+00  3.92472851e+00
  3.93132377e+00  3.94159378e+00  3.94663051e+00  3.95232331e+00
  3.95410227e+00  3.96003497e+00  3.97075028e+00  3.97464289e+00
  3.97853125e+00  3.98128438e+00  3.98410222e+00  3.98788356e+00
  3.99541727e+00  3.99686784e+00  3.99978216e+00  4.01243727e+00
  4.01883399e+00  4.02191869e+00  4.03084106e+00  4.03713793e+00
  4.03804806e+00  4.04518344e+00  4.04676247e+00  4.06002232e+00
  4.06723708e+00  4.07376469e+00  4.07864960e+00  4.08516846e+00
  4.09107244e+00  4.09650255e+00  4.10210746e+00  4.11019038e+00
  4.11767132e+00  4.12302838e+00  4.13182298e+00  4.13419507e+00
  4.14227576e+00  4.14401996e+00  4.14746202e+00  4.15581973e+00
  4.16497334e+00  4.16705590e+00  4.18064102e+00  4.18167283e+00
  4.19332809e+00  4.19890802e+00  4.20296091e+00  4.20829252e+00
  4.21465148e+00  4.22226562e+00  4.22623677e+00  4.23812311e+00
  4.24320132e+00  4.24864690e+00  4.25187557e+00  4.26823338e+00
  4.27628799e+00  4.27730202e+00  4.29103317e+00  4.29224896e+00
  4.29845864e+00  4.30538980e+00  4.31030760e+00  4.32069271e+00
  4.33098682e+00  4.33516988e+00  4.35503771e+00  4.35751267e+00
  4.36133329e+00  4.36345171e+00  4.36538092e+00  4.37096039e+00
  4.38037824e+00  4.38413463e+00  4.38627092e+00  4.39455230e+00
  4.39989737e+00  4.40167879e+00  4.40824494e+00  4.41306975e+00
  4.41628115e+00  4.42812807e+00  4.42961456e+00  4.44430962e+00
  4.44863664e+00  4.45525804e+00  4.46030616e+00  4.46619394e+00
  4.47222330e+00  4.48094177e+00  4.48725178e+00  4.49399561e+00
  4.50366089e+00  4.51412658e+00  4.51981641e+00  4.52410628e+00
  4.53492734e+00  4.54432959e+00  4.54908075e+00  4.55114942e+00
  4.56127821e+00  4.56901748e+00  4.57336873e+00  4.57837389e+00
  4.58577676e+00  4.58928168e+00  4.59831975e+00  4.61338841e+00
  4.61976852e+00  4.62182882e+00  4.62921253e+00  4.63843162e+00
  4.64723290e+00  4.65465438e+00  4.66449774e+00  4.68250033e+00
  4.68520725e+00  4.69431527e+00  4.71144282e+00  4.71329532e+00
  4.73495494e+00  4.74375584e+00  4.74966294e+00  4.76215627e+00
  4.77439151e+00  4.78071431e+00  4.78989716e+00  4.79708560e+00
  4.80125644e+00  4.80637500e+00  4.81621163e+00  4.82785325e+00
  4.83165455e+00  4.83685994e+00  4.84654593e+00  4.85165884e+00
  4.86079811e+00  4.86309378e+00  4.86834013e+00  4.87252571e+00
  4.88645660e+00  4.88772590e+00  4.90638828e+00  4.91744821e+00
  4.92665630e+00  4.93172455e+00  4.94416343e+00  4.95198371e+00
  4.96412102e+00  4.97646489e+00  4.99080315e+00  4.99807157e+00
  5.00536338e+00  5.02134129e+00  5.02681886e+00  5.04857346e+00
  5.05281896e+00  5.06104502e+00  5.06977558e+00  5.08616076e+00
  5.09809642e+00  5.10668453e+00  5.11327414e+00  5.12315708e+00
  5.13114600e+00  5.13641243e+00  5.15006407e+00  5.15597822e+00
  5.16070077e+00  5.16760000e+00  5.16898133e+00  5.17387550e+00
  5.17607038e+00  5.17777765e+00  5.18961094e+00  5.19279751e+00
  5.20803131e+00  5.22113256e+00  5.22372495e+00  5.23198823e+00
  5.24066061e+00  5.24943000e+00  5.25262882e+00  5.25806712e+00
  5.26870668e+00  5.28243960e+00  5.29188330e+00  5.29547669e+00
  5.30438556e+00  5.31399002e+00  5.31748510e+00  5.32587871e+00
  5.32985097e+00  5.33906879e+00  5.34975771e+00  5.35165081e+00
  5.36181970e+00  5.36702305e+00  5.37099710e+00  5.37751171e+00
  5.39641190e+00  5.43541043e+00  5.44431561e+00  5.45971821e+00
  5.46401044e+00  5.47912917e+00  5.48371207e+00  5.50106528e+00
  5.51480896e+00  5.52923707e+00  5.57000648e+00  5.57794581e+00
  5.58978206e+00  5.59420322e+00  5.61085934e+00  5.61168898e+00
  5.65317433e+00  5.65813378e+00  5.67524147e+00  5.68924916e+00
  5.70946546e+00  5.72701825e+00  5.72949211e+00  5.73637591e+00
  5.76988258e+00  5.77703797e+00  5.77914867e+00  5.79308335e+00
  5.83899611e+00  5.85195926e+00  5.85942953e+00  5.90891391e+00
  5.91781567e+00  5.94279629e+00  5.94478218e+00  5.96354241e+00
  5.96807854e+00  6.02479404e+00  6.05578865e+00  6.08459176e+00
  6.09804023e+00  6.10793304e+00  6.12484223e+00  6.18502540e+00
  6.18918197e+00  6.21123577e+00  6.22918814e+00  6.25119700e+00
  6.31657451e+00  6.32763489e+00  6.37144341e+00  6.40345312e+00
  6.43161337e+00  6.43506096e+00  6.44005241e+00  6.44797810e+00
  6.47652823e+00  6.48281148e+00  6.53465882e+00  6.60928928e+00
  6.61804929e+00  6.64419544e+00  6.65453904e+00  6.68945139e+00
  6.69499332e+00  6.74660678e+00  6.74986134e+00  6.75799780e+00
  6.81363423e+00  6.82469346e+00  6.83812052e+00  6.86720928e+00
  6.89437303e+00  6.89815292e+00  6.90910303e+00  6.95761736e+00
  7.08099411e+00  7.09514762e+00  7.10962925e+00  7.13452736e+00
  7.13506811e+00  7.15342119e+00  7.15675204e+00  7.16400951e+00
  7.27340137e+00  7.32461860e+00  2.23802713e+01  2.23826873e+01
  2.24726067e+01  2.24767996e+01  2.24868333e+01  2.25473450e+01
  2.25646530e+01  2.25784980e+01  2.26052818e+01  2.26172547e+01
  2.26598217e+01  2.27055855e+01  2.27279326e+01  2.27391144e+01
  2.27671784e+01  2.27839751e+01  2.28027452e+01  2.28596893e+01
  2.28794563e+01  2.28939962e+01  2.30706527e+01  2.31286824e+01
  2.32532954e+01  2.33220264e+01  2.33294738e+01  2.33823945e+01
  2.34062362e+01  2.34242242e+01  2.34688182e+01  2.34721246e+01
  2.35492486e+01  2.36467093e+01  2.37948815e+01  3.25932223e+01
  3.26327518e+01  3.27357137e+01  3.27740631e+01  4.38945480e+01
  4.39599292e+01  4.40604337e+01  4.40848425e+01  4.41529293e+01
  4.41845558e+01]
nelec by numeric integration = 314.0019684728814
    CPU time for vxc    542.69 sec, wall time     36.53 sec
    CPU time for df vj and vk   4059.55 sec, wall time    298.92 sec
E1 = -13530.568392126306  Ecoul = 6389.161376784321  Exc = -271.16091726358286
Extra cycle  E= -1950.48154961141  delta_E= 1.18e-11  |g|= 4.44e-06  |ddm|= 9.11e-06
    CPU time for scf_cycle  39162.78 sec, wall time   2948.63 sec
    CPU time for SCF  39163.18 sec, wall time   2948.66 sec
converged SCF energy = -1950.48154961141
SCF Done after  2948.6587 seconds
after SCF memory used: 38963.015625 MB
Converting <class 'pyscf.df.df_jk.density_fit.<locals>.DFHF'> to RHF
Converting <class 'pyscf.df.df_jk.density_fit.<locals>.DFHF'> to RHF
a_x = 0.25
beta = 0.6575
alpha = 1.54
hdiag (222312,)
n_occ =  157
n_vir =  1416
max_vir =  416
Q-Gamma tensors building time = 54.988
after Q matrix memory used: 41021.1171875 MB
-------------------------------------------------------------------
|---------------   In-house Developed Davidson Starts   -----------|
Residual conv = 1e-05
Number of excited states = 20
Initial guess:   sTDA
Preconditioner:  sTDA
A matrix size =  222312 * 222312
sTDA nstate = 28
sTDA A diagonalization: threshold = 0.001 ; in 4 steps  50.1436 seconds
sTDA excitation energies:
[2.61470023 2.89055625 3.55068845 3.61547313 3.76007933 3.90401993
 3.97092084 3.98921458 4.00755839 4.07586209 4.27055022 4.32315635
 4.41661817 4.45641437 4.4872545  4.5406941  4.63654251 4.71192093
 4.74519259 4.79715794 4.84425231 4.92176607 4.99795217 5.00779763
 5.01974909 5.07805959 5.11428285 5.12084361]
Intial guess time: 51.1147 seconds
    CPU time for df vj and vk 115183.55 sec, wall time   8191.05 sec
Iteration  0
subspace size:  28
maximum residual norm 0.07033575619019405
sTDA Preconditioning Done after  18 steps;  70.9034 seconds
subgencost 9.7184 13.71 %
mvcost 25.3793 35.79 %
GScost 24.882 35.09 %
subcost 0.1705 0.24 %
m,new_m 28 48
    CPU time for df vj and vk  81578.37 sec, wall time   5722.16 sec
new generated guesses: 20
Iteration  1
subspace size:  48
maximum residual norm 0.02145710659242109
sTDA Preconditioning Done after  16 steps;  72.0127 seconds
subgencost 8.0714 11.21 %
mvcost 25.4253 35.31 %
GScost 29.6092 41.12 %
subcost 0.1615 0.22 %
m,new_m 48 68
    CPU time for df vj and vk  81925.38 sec, wall time   5739.51 sec
new generated guesses: 20
Iteration  2
subspace size:  68
maximum residual norm 0.01259899498644111
sTDA Preconditioning Done after  11 steps;  63.9122 seconds
subgencost 5.1538 8.06 %
mvcost 23.0449 36.06 %
GScost 27.386 42.85 %
subcost 0.1336 0.21 %
m,new_m 68 88
    CPU time for df vj and vk  81359.19 sec, wall time   5713.89 sec
new generated guesses: 20
Iteration  3
subspace size:  88
maximum residual norm 0.004152978225488497
sTDA Preconditioning Done after  14 steps;  66.3576 seconds
subgencost 6.8201 10.28 %
mvcost 23.6913 35.7 %
GScost 27.1885 40.97 %
subcost 0.1027 0.15 %
m,new_m 88 108
    CPU time for df vj and vk  81356.02 sec, wall time   5696.29 sec
new generated guesses: 20
Iteration  4
subspace size:  108
maximum residual norm 0.0011110718611071508
sTDA Preconditioning Done after  13 steps;  60.2723 seconds
subgencost 6.2698 10.4 %
mvcost 22.2302 36.88 %
GScost 23.7385 39.39 %
subcost 0.1206 0.2 %
m,new_m 108 127
    CPU time for df vj and vk  77142.10 sec, wall time   5550.05 sec
new generated guesses: 19
Iteration  5
subspace size:  127
maximum residual norm 0.0003664935444264623
sTDA Preconditioning Done after  16 steps;  40.9456 seconds
subgencost 4.1489 10.13 %
mvcost 18.5796 45.38 %
GScost 12.4457 30.4 %
subcost 0.0801 0.2 %
m,new_m 127 139
    CPU time for df vj and vk  49012.59 sec, wall time   3443.38 sec
new generated guesses: 12
Iteration  6
subspace size:  139
maximum residual norm 0.0001114511930562216
sTDA Preconditioning Done after  24 steps;  23.7113 seconds
subgencost 1.6851 7.11 %
mvcost 18.3173 77.25 %
GScost 2.0332 8.57 %
subcost 0.0386 0.16 %
m,new_m 139 141
    CPU time for df vj and vk   8118.71 sec, wall time    589.58 sec
new generated guesses: 2
Iteration  7
subspace size:  141
maximum residual norm 2.7476569509081484e-05
_________________ sTDA Preconditioner Failed Due to Iteration Limit _________________
sTDA preconditioning failed after  29 steps;  7.9115 seconds
current residual norms [0.06538518753878986]
max_norm =  0.06538518753878986
orthonormality of V 5.202008203169166e-15
m,new_m 141 142
    CPU time for df vj and vk   4044.36 sec, wall time    300.15 sec
new generated guesses: 1
Iteration  8
subspace size:  142
maximum residual norm 8.706550169204493e-06
Davidson procedure aborted
Davidson done after  48109.156 seconds
Total steps = 9
Final subspace shape =  (142, 142)
Preconditioning time: 408.9402 0.85 %
In-house Davidson time: 48109.4198 seconds
Excited State energies (eV) =
[2.87913993 3.14801208 3.83492867 3.86093499 4.0063035  4.09523862
 4.12288293 4.18839372 4.27207655 4.44516444 4.58390274 4.65048191
 4.68518066 4.78772213 4.79487435 4.81235575 4.92914413 4.97803583
 5.01238712 5.07001072]
|---------------   In-house Developed Davidson Done   -----------|
-------------------------------------------------------------------
|---------------   In-house Developed Davidson Starts   -----------|
Residual conv = 1e-05
Number of excited states = 20
Initial guess:   Adiag
Preconditioner:  Adiag
A matrix size =  222312 * 222312
Intial guess time: 0.0144 seconds
    CPU time for df vj and vk 114510.86 sec, wall time   7974.89 sec
Iteration  0
subspace size:  28
maximum residual norm 0.14606114565947673
m,new_m 28 48
    CPU time for df vj and vk  81556.05 sec, wall time   5711.41 sec
new generated guesses: 20
Iteration  1
subspace size:  48
maximum residual norm 0.02728079358564628
m,new_m 48 68
    CPU time for df vj and vk  81719.05 sec, wall time   5712.01 sec
new generated guesses: 20
Iteration  2
subspace size:  68
maximum residual norm 0.02269375222826166
m,new_m 68 88
    CPU time for df vj and vk  81745.20 sec, wall time   5722.88 sec
new generated guesses: 20
Iteration  3
subspace size:  88
maximum residual norm 0.015275838835176697
m,new_m 88 108
    CPU time for df vj and vk  81574.68 sec, wall time   5706.14 sec
new generated guesses: 20
Iteration  4
subspace size:  108
maximum residual norm 0.006640267141588913
m,new_m 108 128
    CPU time for df vj and vk  81581.63 sec, wall time   5714.30 sec
new generated guesses: 20
Iteration  5
subspace size:  128
maximum residual norm 0.002320955584535627
m,new_m 128 148
    CPU time for df vj and vk  81798.59 sec, wall time   5738.31 sec
new generated guesses: 20
Iteration  6
subspace size:  148
maximum residual norm 0.0008650709876540302
m,new_m 148 164
    CPU time for df vj and vk  65453.57 sec, wall time   4593.09 sec
new generated guesses: 16
Iteration  7
subspace size:  164
maximum residual norm 0.00024665725239261436
m,new_m 164 172
    CPU time for df vj and vk  32772.98 sec, wall time   2300.31 sec
new generated guesses: 8
Iteration  8
subspace size:  172
maximum residual norm 6.937717478114218e-05
m,new_m 172 175
    CPU time for df vj and vk  12156.78 sec, wall time    864.48 sec
new generated guesses: 3
Iteration  9
subspace size:  175
maximum residual norm 1.6982936657074985e-05
m,new_m 175 176
    CPU time for df vj and vk   4052.29 sec, wall time    304.44 sec
new generated guesses: 1
Iteration  10
subspace size:  176
maximum residual norm 4.714054819672616e-06
Davidson procedure aborted
Davidson done after  58465.7356 seconds
Total steps = 11
Final subspace shape =  (176, 176)
Preconditioning time: 4.1556 0.01 %
In-house Davidson time: 58466.0514 seconds
Excited State energies (eV) =
[2.87913993 3.14801208 3.83492867 3.86093499 4.0063035  4.09523862
 4.12288293 4.18839372 4.27207655 4.44516444 4.58390274 4.65048191
 4.68518066 4.78772213 4.79487435 4.81235575 4.92914413 4.97803583
 5.01238712 5.07001072]
|---------------   In-house Developed Davidson Done   -----------|
xyzfile = 83_Dinoflagellate_luciferin.xyz
checkfile = True
method = RKS
functional = pbe0
basis_set = def2-tzvp
density_fit = True
grid_level = 3
nstates = 20
pytd = False
TDA = True
TDDFT = False
dynpol = False
dynpol_omega = []
stapol = False
sTDA = False
sTDDFT = False
Truncate_test = False
truncate_virtual = 40.0
TDA_options = [0, 1]
TDDFT_options = [0]
dynpol_options = [0]
stapol_options = [0]
TDA_tolerance = 1e-05
TDDFT_tolerance = 1e-05
dynpol_tolerance = 1e-05
stapol_tolerance = 1e-05
max = 35
TDA_initialTOL = 0.001
TDDFT_initialTOL = 0.001
dynpol_initprecTOL = 0.01
stapol_initprecTOL = 0.01
TDA_precondTOL = 0.01
TDDFT_precondTOL = 0.01
TDA_extrainitial = 8
TDDFT_extrainitial = 8
TDDFT_extrainitial_3n = False
eigensolver_tol = 1e-05
memory = 60000
verbose = 5
beta = []
alpha = []
