curpath /scratch/pbsjobs/job.16252245.hpc
lib.num_threads() =  20
at beginning memory used: 0.05 GB
mol.max_memory 160000


System: uname_result(system='Linux', node='compt296', release='3.10.0-1127.el7.x86_64', version='#1 SMP Tue Feb 18 16:39:12 EST 2020', machine='x86_64', processor='x86_64')  Threads 20
Python 3.7.0 (default, Aug 23 2018, 14:24:33) 
[GCC 6.3.0]
numpy 1.18.1  scipy 1.4.1
Date: Mon Sep  6 20:41:47 2021
PySCF version 1.7.4
PySCF path  /home/zzz6/.local/lib/python3.7/site-packages/pyscf

[CONFIG] conf_file None
[INPUT] verbose = 5
[INPUT] max_memory = 160000 
[INPUT] num. atoms = 99
[INPUT] num. electrons = 306
[INPUT] charge = 0
[INPUT] spin (= nelec alpha-beta = 2S) = 0
[INPUT] symmetry False subgroup None
[INPUT] Mole.unit = angstrom
[INPUT]  1 O    -15.853325647192  -2.513110726611   0.486804451917 AA  -29.958443636737  -4.749090994002   0.919927090342 Bohr
[INPUT]  2 C     13.229870973341  -1.479924819805   0.701062589411 AA   25.000832802947  -2.796652594378   1.324816290165 Bohr
[INPUT]  3 C     14.649169931334  -0.864901660676   0.738182734535 AA   27.682919122434  -1.634427263359   1.394963198153 Bohr
[INPUT]  4 C     14.634717411663   0.612377578686   1.124929069746 AA   27.655607818446   1.157225908541   2.125807851382 Bohr
[INPUT]  5 C     12.225763064377  -0.531441537190   0.002888078564 AA   23.103343855496  -1.004278956506   0.005457677512 Bohr
[INPUT]  6 C     13.865448247569   1.396662598766   0.062782369477 AA   26.201899782237   2.639309800091   0.118641483764 Bohr
[INPUT]  7 C     12.550040842881   0.757332002463  -0.331684094349 AA   23.716140045151   1.431150070024  -0.626792098193 Bohr
[INPUT]  8 C     12.733463871550  -1.762011541262   2.139975299929 AA   24.062759334273  -3.329719241309   4.043967230200 Bohr
[INPUT]  9 C     13.332925996647  -2.825067138102  -0.058442510541 AA   25.195578572757  -5.338603174522  -0.110440338954 Bohr
[INPUT] 10 C     10.906671757014  -1.115679796527  -0.262109682090 AA   20.610622551285  -2.108329258147  -0.495315513748 Bohr
[INPUT] 11 C     11.672230520618   1.664652389771  -1.162004325327 AA   22.057318946758   3.145737109270  -2.195869930428 Bohr
[INPUT] 12 C      9.698108730175  -0.491083766356  -0.110831758790 AA   18.326769426284  -0.928013822633  -0.209441670017 Bohr
[INPUT] 13 C      8.401243375247  -1.081006136908  -0.362928774276 AA   15.876049085033  -2.042805537731  -0.685835986106 Bohr
[INPUT] 14 C    -15.864482597194  -1.171704276158   1.017267294060 AA  -29.979527216626  -2.214200180921   1.922356581251 Bohr
[INPUT] 15 C      8.334726284921  -2.503059879436  -0.865346010339 AA   15.750350001714  -4.730097645521  -1.635266962525 Bohr
[INPUT] 16 C    -14.945566515032  -0.363583055951   0.078711359722 AA  -28.243027489881  -0.687072399280   0.148742912766 Bohr
[INPUT] 17 C      7.273600489902  -0.310234438127  -0.132808509186 AA   13.745112865417  -0.586258122469  -0.250971709373 Bohr
[INPUT] 18 C    -13.505718848774  -0.882385928520  -0.015094213485 AA  -25.522109739560  -1.667467741072  -0.028523929553 Bohr
[INPUT] 19 C    -12.691385100754  -0.154472022874  -1.107335651943 AA  -23.983241981810  -0.291909817139  -2.092561110139 Bohr
[INPUT] 20 C    -15.351967546227  -1.184338035966   2.467915589908 AA  -29.011014135580  -2.238074526882   4.663684563470 Bohr
[INPUT] 21 C    -17.296777645249  -0.613450767036   0.956560607872 AA  -32.686172587021  -1.159253940602   1.807637570426 Bohr
[INPUT] 22 C    -11.260357145442  -0.629171358180  -1.215754977463 AA  -21.278991069674  -1.188961552381  -2.297443941982 Bohr
[INPUT] 23 C      5.907771482351  -0.680528218307  -0.318057094925 AA   11.164070108159  -1.286011952639  -0.601040801382 Bohr
[INPUT] 24 C    -11.066594452968  -2.039649882225  -1.709899829589 AA  -20.912832647741  -3.854379667407  -3.231242378363 Bohr
[INPUT] 25 C    -10.233381030699   0.200936105903  -0.857461921405 AA  -19.338287476341   0.379714208694  -1.620368193699 Bohr
[INPUT] 26 C      4.850973062684   0.171117850118  -0.061833943670 AA    9.167010526115   0.323365871748  -0.116849218739 Bohr
[INPUT] 27 C     -8.823424746317  -0.091552900859  -0.876372103039 AA  -16.673856251250  -0.173009908533  -1.656103257954 Bohr
[INPUT] 28 C      3.457838147249  -0.127338749524  -0.227820652785 AA    6.534367081374  -0.240635361645  -0.430518639284 Bohr
[INPUT] 29 C     -7.857661716861   0.810051534719  -0.497566547820 AA  -14.848828624346   1.530775547402  -0.940264504125 Bohr
[INPUT] 30 C      3.056638710179  -1.495746190187  -0.727824642854 AA    5.776210023983  -2.826550651315  -1.375389241703 Bohr
[INPUT] 31 C      2.527626766119   0.862624472168   0.078882648971 AA    4.776522333086   1.630124000745   0.149066602536 Bohr
[INPUT] 32 C     -6.434732668704   0.584895893192  -0.493774692639 AA  -12.159882428642   1.105293049517  -0.933098936330 Bohr
[INPUT] 33 C      1.113168042848   0.791133915426  -0.013349688321 AA    2.103582731600   1.495026428009  -0.025227254775 Bohr
[INPUT] 34 C     -5.910380534788  -0.759173483883  -0.941310829636 AA  -11.169000502710  -1.434629965571  -1.778819666100 Bohr
[INPUT] 35 C     -5.602135341060   1.616700252479  -0.079139890041 AA  -10.586501507351   3.055120702700  -0.149552717707 Bohr
[INPUT] 36 C      0.269190790871   1.842685898875   0.315896322202 AA    0.508696870001   3.482171682472   0.596957532719 Bohr
[INPUT] 37 C     -4.181532802968   1.613259741350  -0.001327681659 AA   -7.901951778494   3.048619078938  -0.002508954715 Bohr
[INPUT] 38 C     -3.447186049819   2.704615835799   0.426484700391 AA   -6.514237534579   5.110983201822   0.805939280056 Bohr
[INPUT] 39 C     -1.145088074012   1.790331138513   0.225961104252 AA   -2.163902848389   3.383235524070   0.427004601841 Bohr
[INPUT] 40 C     -2.018706027430   2.826078399010   0.545879756556 AA   -3.814801517851   5.340514180679   1.031563236835 Bohr
[INPUT] 41 C     -1.476569197299   4.153383921630   1.042798210486 AA   -2.790311386864   7.848758102052   1.970603021005 Bohr
[INPUT] 42 H     15.107961469245  -0.964404583690  -0.265203707678 AA   28.549909477354  -1.822460536449  -0.501162374731 Bohr
[INPUT] 43 H     15.274325444576  -1.455860987373   1.433066194806 AA   28.864291827724  -2.751178541574   2.708102626557 Bohr
[INPUT] 44 H     15.662908344329   1.003641143074   1.224904419176 AA   29.598607084948   1.896606887756   2.314733881012 Bohr
[INPUT] 45 H     14.147747915799   0.740614189896   2.109788247694 AA   26.735368840247   1.399557982869   3.986921968968 Bohr
[INPUT] 46 H     14.490456701870   1.516531181445  -0.848409926948 AA   27.382994586404   2.865828592294  -1.603262403294 Bohr
[INPUT] 47 H     13.662617811476   2.429991156410   0.408727603552 AA   25.818605808295   4.592017770731   0.772383230263 Bohr
[INPUT] 48 H     13.395600347430  -2.489784239273   2.644185969014 AA   25.314015930771  -4.705010321484   4.996787303853 Bohr
[INPUT] 49 H     11.710021876905  -2.175465603560   2.123856978556 AA   22.128734260016  -4.111034184140   4.013508017217 Bohr
[INPUT] 50 H     12.708386565135  -0.838144965371   2.743163903380 AA   24.015370093207  -1.583864437235   5.183828492180 Bohr
[INPUT] 51 H     14.145726573673  -3.432568425575   0.378686236174 AA   26.731549057224  -6.486614228167   0.715613273511 Bohr
[INPUT] 52 H     13.563015227923  -2.660248983242  -1.125822026861 AA   25.630384204080  -5.027142001481  -2.127495295771 Bohr
[INPUT] 53 H     12.406382330983  -3.419739661775   0.010730425670 AA   23.444664802201  -6.462371378067   0.020277565717 Bohr
[INPUT] 54 H     10.895026218280  -2.175565264148  -0.544086438943 AA   20.588615672506  -4.111222515357  -1.028174357693 Bohr
[INPUT] 55 H     11.163183260802   2.424318736820  -0.536306404592 AA   21.095359041244   4.581298451241  -1.013472223529 Bohr
[INPUT] 56 H     10.899746324894   1.113756693081  -1.720180238807 AA   20.597535381285   2.104695119324  -3.250669536235 Bohr
[INPUT] 57 H     12.298839404293   2.226477881762  -1.881101658814 AA   23.241438124124   4.207433418932  -3.554766947623 Bohr
[INPUT] 58 H      9.683397881685   0.542154678821   0.258031073603 AA   18.298969951579   1.024523860122   0.487608060737 Bohr
[INPUT] 59 H    -15.402696397073  -0.391775250514  -0.928568626383 AA  -29.106877770293  -0.740347925854  -1.754740391727 Bohr
[INPUT] 60 H    -14.951932191360   0.694584928923   0.402208332082 AA  -28.255056874738   1.312575285915   0.760063592652 Bohr
[INPUT] 61 H      8.814912165535  -3.194262930994  -0.147682559536 AA   16.657769804957  -6.036282109430  -0.279079590898 Bohr
[INPUT] 62 H      7.301218727104  -2.845013179981  -1.022344818305 AA   13.797303769773  -5.376295730942  -1.931951711465 Bohr
[INPUT] 63 H      8.878293320116  -2.607029994736  -1.822390800417 AA   16.777542828575  -4.926572688578  -3.443819504714 Bohr
[INPUT] 64 H    -12.984857828887  -0.757825174077   0.952119550549 AA  -24.537825063010  -1.432082029307   1.799245188381 Bohr
[INPUT] 65 H    -13.543648490756  -1.965694283170  -0.222347142176 AA  -25.593786374907  -3.714623839814  -0.420175203292 Bohr
[INPUT] 66 H      7.447011131683   0.711846345577   0.233790289470 AA   14.072811485468   1.345194635913   0.441799617681 Bohr
[INPUT] 67 H    -12.703942949437   0.932578204934  -0.905947713136 AA  -24.006972876535   1.762317397063  -1.711993061003 Bohr
[INPUT] 68 H    -13.203735543521  -0.305129273325  -2.080252349973 AA  -24.951443998441  -0.576610759171  -3.931107211431 Bohr
[INPUT] 69 H    -15.284552988447  -0.161987305705   2.880296996993 AA  -28.883619084568  -0.306111643439   5.442972481724 Bohr
[INPUT] 70 H    -16.042318392936  -1.761235589995   3.111510351747 AA  -30.315588165723  -3.328252905928   5.879902398551 Bohr
[INPUT] 71 H    -14.356995982520  -1.654660390239   2.526551263470 AA  -27.130790378444  -3.126854966717   4.774489927633 Bohr
[INPUT] 72 H    -17.973649889727  -1.214562316335   1.592065689853 AA  -33.965275750403  -2.295190139090   3.008568126140 Bohr
[INPUT] 73 H    -17.338908603618   0.431291646829   1.312541704015 AA  -32.765788559703   0.815023092320   2.480344347659 Bohr
[INPUT] 74 H    -17.672677200564  -0.649570559301  -0.079881444352 AA  -33.396519796910  -1.227510455660  -0.150954052259 Bohr
[INPUT] 75 H      5.691253901755  -1.691047499818  -0.683874217489 AA   10.754911179679  -3.195616638287  -1.292334974705 Bohr
[INPUT] 76 H    -16.395073357706  -3.061036372297   1.082907139801 AA  -30.982198438219  -5.784520400973   2.046397912559 Bohr
[INPUT] 77 H    -11.520069996927  -2.768662807894  -1.011625313526 AA  -21.769777230012  -5.232014438188  -1.911694783242 Bohr
[INPUT] 78 H    -11.578464673328  -2.180318056588  -2.681333336857 AA  -21.880127175541  -4.120203991395  -5.066985655326 Bohr
[INPUT] 79 H    -10.007481067071  -2.309446224927  -1.838659733563 AA  -18.911398413534  -4.364220864523  -3.474563332699 Bohr
[INPUT] 80 H    -10.504603346082   1.210576087200  -0.515600306864 AA  -19.850823371284   2.287657257756  -0.974343369715 Bohr
[INPUT] 81 H      5.088824337365   1.180057197481   0.304256943872 AA    9.616484293641   2.229984914560   0.574962295415 Bohr
[INPUT] 82 H     -8.512437300498  -1.088229191421  -1.211097094377 AA  -16.086175150473  -2.056455132543  -2.288641818628 Bohr
[INPUT] 83 H     -8.188786629407   1.803659950828  -0.163112179300 AA  -15.474564022079   3.408423328911  -0.308237346458 Bohr
[INPUT] 84 H      3.426556860509  -2.285366380406  -0.048141781144 AA    6.475254016611  -4.318716553257  -0.090974781511 Bohr
[INPUT] 85 H      3.496507380302  -1.694384046259  -1.722527228252 AA    6.607441341290  -3.201921797262  -3.255104703502 Bohr
[INPUT] 86 H      1.965894655195  -1.607701685790  -0.812822939689 AA    3.715002488065  -3.038115876145  -1.536012743775 Bohr
[INPUT] 87 H      2.936772181197   1.819163375798   0.434929178034 AA    5.549695112705   3.437720556097   0.821897030066 Bohr
[INPUT] 88 H      0.651374423076  -0.141092309282  -0.364529970955 AA    1.230919264160  -0.266625822826  -0.688861809300 Bohr
[INPUT] 89 H     -6.219123824681  -0.973550628083  -1.981145674101 AA  -11.752440763405  -1.839744055476  -3.743822736918 Bohr
[INPUT] 90 H     -4.813151333071  -0.818528740503  -0.895792438318 AA   -9.095537815590  -1.546795144636  -1.692802372877 Bohr
[INPUT] 91 H     -6.320380241813  -1.569235276255  -0.310312037288 AA  -11.943787660138  -2.965424897129  -0.586404763630 Bohr
[INPUT] 92 H     -6.096918629058   2.550417913370   0.224807102003 AA  -11.521506412679   4.819591359455   0.424823853642 Bohr
[INPUT] 93 H      0.735741539061   2.772657578343   0.666810185260 AA    1.390350007292   5.239563460268   1.260088627213 Bohr
[INPUT] 94 H     -3.650406019683   0.700465216370  -0.296925164254 AA   -6.898267620665   1.323687418723  -0.561107239931 Bohr
[INPUT] 95 H     -4.022724475868   3.596629985720   0.711987205612 AA   -7.601847533976   6.796645644409   1.345460822800 Bohr
[INPUT] 96 H     -1.572607838722   0.843926050949  -0.129877001253 AA   -2.971798116529   1.594789105680  -0.245431962248 Bohr
[INPUT] 97 H     -0.887782290540   4.028791946339   1.970097909507 AA   -1.677665387360   7.613313391434   3.722945487547 Bohr
[INPUT] 98 H     -2.294790660097   4.860122329293   1.255627479456 AA   -4.336525860793   9.184300134247   2.372792050650 Bohr
[INPUT] 99 H     -0.810000989547   4.623550544445   0.296551738972 AA   -1.530680030870   8.737244252085   0.560401568420 Bohr
[INPUT] ---------------- BASIS SET ---------------- 
[INPUT] l, kappa, [nprim/nctr], expnt,             c_1 c_2 ...
[INPUT] O
[INPUT] 0    0    [6    /1   ]  27032.382631      0.00021726302465
                                4052.3871392      0.0016838662199
                                922.3272271       0.0087395616265
                                261.24070989      0.035239968808
                                85.354641351      0.11153519115
                                31.035035245      0.25588953961
[INPUT] 0    0    [2    /1   ]  12.260860728      0.39768730901
                                4.9987076005      0.2462784943
[INPUT] 0    0    [1    /1   ]  1.1703108158         1
[INPUT] 0    0    [1    /1   ]  0.46474740994        1
[INPUT] 0    0    [1    /1   ]  0.18504536357        1
[INPUT] 1    0    [4    /1   ]  63.274954801      0.0060685103418
                                14.627049379      0.041912575824
                                4.4501223456      0.16153841088
                                1.5275799647      0.35706951311
[INPUT] 1    0    [1    /1   ]  0.52935117943        1
[INPUT] 1    0    [1    /1   ]  0.1747842127         1
[INPUT] 2    0    [1    /1   ]  2.314                1
[INPUT] 2    0    [1    /1   ]  0.645                1
[INPUT] 3    0    [1    /1   ]  1.428                1
[INPUT] H
[INPUT] 0    0    [3    /1   ]  34.061341         0.0060251978
                                5.1235746         0.045021094
                                1.1646626         0.20189726
[INPUT] 0    0    [1    /1   ]  0.32723041           1
[INPUT] 0    0    [1    /1   ]  0.10307241           1
[INPUT] 1    0    [1    /1   ]  0.8                  1
[INPUT] C
[INPUT] 0    0    [6    /1   ]  13575.349682      0.00022245814352
                                2035.233368       0.0017232738252
                                463.22562359      0.0089255715314
                                131.20019598      0.035727984502
                                42.853015891      0.11076259931
                                15.584185766      0.24295627626
[INPUT] 0    0    [2    /1   ]  6.2067138508      0.41440263448
                                2.5764896527      0.23744968655
[INPUT] 0    0    [1    /1   ]  0.57696339419        1
[INPUT] 0    0    [1    /1   ]  0.22972831358        1
[INPUT] 0    0    [1    /1   ]  0.095164440028       1
[INPUT] 1    0    [4    /1   ]  34.697232244      0.0053333657805
                                7.9582622826      0.035864109092
                                2.3780826883      0.14215873329
                                0.81433208183     0.34270471845
[INPUT] 1    0    [1    /1   ]  0.28887547253        1
[INPUT] 1    0    [1    /1   ]  0.10056823671        1
[INPUT] 2    0    [1    /1   ]  1.097                1
[INPUT] 2    0    [1    /1   ]  0.318                1
[INPUT] 3    0    [1    /1   ]  0.761                1

nuclear repulsion = 3675.37063388578
number of shells = 683
number of NR pGTOs = 2350
number of NR cGTOs = 1619
basis = def2-tzvp
ecp = {}
CPU time:         4.31
RKS
Density fitting turned on
Molecule built
Calculating SCF Energy...


******** <class 'pyscf.df.df_jk.density_fit.<locals>.DFHF'> ********
method = DFHF-RKS-RHF
initial guess = chkfile
damping factor = 0
level_shift factor = 0
DIIS = <class 'pyscf.scf.diis.CDIIS'>
diis_start_cycle = 1
diis_space = 8
SCF conv_tol = 1e-10
SCF conv_tol_grad = None
SCF max_cycles = 50
direct_scf = True
direct_scf_tol = 1e-13
chkfile to save SCF result = 99_Carotenoid_B_wb97x.chk
max_memory 160000 MB (current use 56 MB)
XC functionals = wb97x
small_rho_cutoff = 1e-07
radial grids: 
    Treutler-Ahlrichs [JCP 102, 346 (1995); DOI:10.1063/1.469408] (M4) radial grids
    
becke partition: Becke, JCP 88, 2547 (1988); DOI:10.1063/1.454033
pruning grids: <function nwchem_prune at 0x7fc89d6e9e18>
grids dens level: 3
symmetrized grids: False
atomic radii adjust function: <function treutler_atomic_radii_adjust at 0x7fc89d6e9d90>
Set gradient conv threshold to 1e-05
atom O rad-grids = 75, ang-grids = [ 50  50  50  50  50  50  50  50  50  50  50  50  50  50  50  50  50  50
  50  50  50  50  86  86  86  86  86  86  86  86  86 266 266 266 266 266
 266 266 302 302 302 302 302 302 302 302 302 302 302 302 302 302 302 302
 302 302 302 266 266 266 266 266 266 266 266 266 266 266 266 266 266 266
 266 266 266]
atom C rad-grids = 75, ang-grids = [ 50  50  50  50  50  50  50  50  50  50  50  50  50  50  50  50  50  50
  50  50  50  50  50  86  86  86  86  86  86  86  86  86  86 266 266 266
 266 266 266 266 302 302 302 302 302 302 302 302 302 302 302 302 302 302
 302 302 302 302 302 302 266 266 266 266 266 266 266 266 266 266 266 266
 266 266 266]
atom H rad-grids = 50, ang-grids = [ 50  50  50  50  50  50  50  50  50  50  50  50  50  50  86  86  86  86
 266 266 266 266 302 302 302 302 302 302 302 302 302 302 302 302 302 266
 266 266 266 266 266 266 266 266 266 266 266 266 266 266]
tot grids = 1151734
Drop grids 212499
    CPU time for setting up grids    416.36 sec, wall time     23.13 sec
nelec by numeric integration = 306.00013789809185
    CPU time for vxc    636.68 sec, wall time     34.00 sec
******** <class 'pyscf.df.df.DF'> ********
auxbasis = None
max_memory = 160000
_cderi_to_save = /tmp/job.16252245.hpc/tmpa6844v6k
Default auxbasis def2-tzvp-jkfit is used for O def2-tzvp
Default auxbasis def2-tzvp-jkfit is used for H def2-tzvp
Default auxbasis def2-tzvp-jkfit is used for C def2-tzvp
num shells = 1373, num cGTOs = 4121
size of aux basis 4121
int3c2e [1/2], AO [0:610], nrow = 1137786
int3c2e [2/2], AO [610:683], nrow = 173604
    CPU time for cholesky_eri   1111.18 sec, wall time    156.80 sec
    CPU time for df vj and vk   3969.11 sec, wall time    332.74 sec
Create RSH-DF object <pyscf.df.df.DF object at 0x7fc875cce208> for omega=0.3
******** <class 'pyscf.df.df.DF'> ********
auxbasis = None
max_memory = 160000
_cderi_to_save = /tmp/job.16252245.hpc/tmpvhhm97k5
Default auxbasis def2-tzvp-jkfit is used for O def2-tzvp
Default auxbasis def2-tzvp-jkfit is used for H def2-tzvp
Default auxbasis def2-tzvp-jkfit is used for C def2-tzvp
num shells = 1373, num cGTOs = 4121
size of aux basis 3388
int3c2e [1/2], AO [0:444], nrow = 774390
int3c2e [2/2], AO [444:683], nrow = 537000
    CPU time for cholesky_eri   1690.28 sec, wall time    127.11 sec
    CPU time for df vj and vk   4076.68 sec, wall time    251.83 sec
E1 = -9514.108553366166  Ecoul = 4451.179053880664  Exc = -246.86700627031885
init E= -1634.42587187004
cond(S) = 984278.0677788383
    CPU time for initialize scf   9122.32 sec, wall time    644.05 sec
  HOMO = -0.230709264471164  LUMO = -0.0377019097282193
  mo_energy =
[-1.91917508e+01 -1.03188923e+01 -1.02765008e+01 -1.02762832e+01
 -1.02758978e+01 -1.02734241e+01 -1.02713346e+01 -1.02711733e+01
 -1.02667089e+01 -1.02663595e+01 -1.02655189e+01 -1.02645250e+01
 -1.02636905e+01 -1.02634530e+01 -1.02633347e+01 -1.02629496e+01
 -1.02624447e+01 -1.02614398e+01 -1.02602245e+01 -1.02595251e+01
 -1.02588028e+01 -1.02577454e+01 -1.02566873e+01 -1.02566217e+01
 -1.02565347e+01 -1.02565265e+01 -1.02563778e+01 -1.02562103e+01
 -1.02550961e+01 -1.02543698e+01 -1.02538749e+01 -1.02534145e+01
 -1.02527300e+01 -1.02521677e+01 -1.02510199e+01 -1.02507114e+01
 -1.02496797e+01 -1.02479623e+01 -1.02461265e+01 -1.02448318e+01
 -1.02408324e+01 -1.14616550e+00 -9.83888590e-01 -9.72180663e-01
 -9.68183560e-01 -9.61363936e-01 -9.54231903e-01 -9.49104101e-01
 -9.29973070e-01 -9.21856665e-01 -9.16391794e-01 -9.07315125e-01
 -8.98711304e-01 -8.83670846e-01 -8.75388085e-01 -8.59977634e-01
 -8.48790384e-01 -8.34106479e-01 -8.20812990e-01 -8.17180970e-01
 -8.15897524e-01 -8.13864502e-01 -8.07427982e-01 -8.05958903e-01
 -8.02294726e-01 -7.96720720e-01 -7.83988707e-01 -7.58231464e-01
 -7.42499465e-01 -7.25456379e-01 -7.14451843e-01 -6.93128944e-01
 -6.82983581e-01 -6.82394282e-01 -6.78192790e-01 -6.64844184e-01
 -6.53925870e-01 -6.48584752e-01 -6.46109741e-01 -6.36105769e-01
 -6.25326744e-01 -6.11883998e-01 -6.07867658e-01 -6.03717085e-01
 -5.95387670e-01 -5.87981414e-01 -5.82657389e-01 -5.79945063e-01
 -5.73043651e-01 -5.71691307e-01 -5.63252295e-01 -5.57665196e-01
 -5.56033598e-01 -5.50628182e-01 -5.48384609e-01 -5.39528300e-01
 -5.35346672e-01 -5.31553405e-01 -5.31175968e-01 -5.30637566e-01
 -5.29227486e-01 -5.28322657e-01 -5.26883858e-01 -5.26455721e-01
 -5.24315759e-01 -5.21122528e-01 -5.18374395e-01 -5.05658253e-01
 -5.02824838e-01 -5.02284345e-01 -5.00158941e-01 -4.96987841e-01
 -4.92767298e-01 -4.91033634e-01 -4.84621388e-01 -4.83516853e-01
 -4.82569142e-01 -4.77734063e-01 -4.76135459e-01 -4.73114269e-01
 -4.69990765e-01 -4.69702295e-01 -4.66222726e-01 -4.64623631e-01
 -4.61912704e-01 -4.58564657e-01 -4.53520911e-01 -4.52448191e-01
 -4.51009277e-01 -4.50140933e-01 -4.47708646e-01 -4.45116635e-01
 -4.42563775e-01 -4.41841577e-01 -4.40627384e-01 -4.38156042e-01
 -4.37791322e-01 -4.33627775e-01 -4.31160534e-01 -4.22542503e-01
 -4.20376275e-01 -4.16972926e-01 -4.10530068e-01 -4.08220520e-01
 -3.97267062e-01 -3.90211687e-01 -3.79136530e-01 -3.75895867e-01
 -3.49688049e-01 -3.26256700e-01 -2.98423735e-01 -2.67340718e-01
 -2.30709264e-01 -3.77019097e-02  7.57175311e-03  4.65529228e-02
  8.07448969e-02  9.75688237e-02  1.04059807e-01  1.08668456e-01
  1.12146907e-01  1.15772846e-01  1.21110732e-01  1.24086854e-01
  1.26959274e-01  1.28726724e-01  1.31344566e-01  1.35614847e-01
  1.38068274e-01  1.39794186e-01  1.42909509e-01  1.43790102e-01
  1.45718067e-01  1.47226266e-01  1.50794726e-01  1.52822889e-01
  1.56049206e-01  1.56625560e-01  1.58152007e-01  1.58737216e-01
  1.64363699e-01  1.65980161e-01  1.67041698e-01  1.69324717e-01
  1.70033034e-01  1.72975316e-01  1.75099507e-01  1.79050431e-01
  1.80491935e-01  1.82851271e-01  1.84466205e-01  1.88055706e-01
  1.92775049e-01  1.96319435e-01  1.97904038e-01  1.99633038e-01
  1.99703594e-01  2.02950014e-01  2.05254893e-01  2.06313255e-01
  2.07686901e-01  2.10472576e-01  2.11648702e-01  2.14789446e-01
  2.16112269e-01  2.16903310e-01  2.18104180e-01  2.21074260e-01
  2.23901503e-01  2.25075834e-01  2.26423965e-01  2.27868573e-01
  2.30374627e-01  2.32697360e-01  2.33794059e-01  2.35985186e-01
  2.39002918e-01  2.39273162e-01  2.40332069e-01  2.44572517e-01
  2.46174078e-01  2.49036465e-01  2.52341666e-01  2.53568157e-01
  2.54948063e-01  2.56031080e-01  2.57616528e-01  2.59388618e-01
  2.63928845e-01  2.65264154e-01  2.67126159e-01  2.67920545e-01
  2.68814371e-01  2.69739666e-01  2.72095779e-01  2.74869276e-01
  2.77693162e-01  2.79224815e-01  2.82975414e-01  2.85820215e-01
  2.89617864e-01  2.90593689e-01  2.90753171e-01  2.94866545e-01
  2.96088478e-01  2.97783574e-01  2.98307067e-01  3.02357644e-01
  3.03205801e-01  3.05643158e-01  3.10294659e-01  3.15187599e-01
  3.17914135e-01  3.20185040e-01  3.20945624e-01  3.24168172e-01
  3.24705289e-01  3.25102079e-01  3.27161454e-01  3.33061458e-01
  3.36940390e-01  3.39986402e-01  3.41394409e-01  3.42433213e-01
  3.45610718e-01  3.47091549e-01  3.49587003e-01  3.52014968e-01
  3.54646475e-01  3.56692635e-01  3.59237964e-01  3.61917387e-01
  3.63847778e-01  3.65618151e-01  3.66709971e-01  3.70008414e-01
  3.72551929e-01  3.74381334e-01  3.75872671e-01  3.79413704e-01
  3.81430993e-01  3.84431482e-01  3.90296642e-01  3.91663042e-01
  3.93187251e-01  3.94649364e-01  3.97963802e-01  4.02792985e-01
  4.04196057e-01  4.08775224e-01  4.09007759e-01  4.12441045e-01
  4.14745514e-01  4.15897680e-01  4.16630029e-01  4.20879920e-01
  4.22062859e-01  4.22904469e-01  4.24945348e-01  4.26258104e-01
  4.29497651e-01  4.30573767e-01  4.32317962e-01  4.33963420e-01
  4.35576166e-01  4.39131788e-01  4.41797663e-01  4.45284561e-01
  4.49261005e-01  4.50104237e-01  4.52176840e-01  4.54147964e-01
  4.54664276e-01  4.56986389e-01  4.59146632e-01  4.60157756e-01
  4.62824184e-01  4.64687524e-01  4.69070955e-01  4.69508947e-01
  4.72502725e-01  4.76157350e-01  4.78246103e-01  4.78859376e-01
  4.80546060e-01  4.83368333e-01  4.84591756e-01  4.86505350e-01
  4.88280956e-01  4.90878975e-01  4.93175206e-01  4.93730825e-01
  4.96280089e-01  4.98241704e-01  4.99595142e-01  5.01247013e-01
  5.03612943e-01  5.04568668e-01  5.07696316e-01  5.08906151e-01
  5.13393438e-01  5.14221101e-01  5.15119017e-01  5.15435387e-01
  5.17533692e-01  5.18876808e-01  5.21323480e-01  5.23618943e-01
  5.24446401e-01  5.24961977e-01  5.27168879e-01  5.29144823e-01
  5.29950778e-01  5.33018121e-01  5.35117243e-01  5.35228165e-01
  5.36783403e-01  5.37535860e-01  5.39708332e-01  5.40945376e-01
  5.41457830e-01  5.41632379e-01  5.47250279e-01  5.50437887e-01
  5.50893811e-01  5.53508838e-01  5.54244243e-01  5.54756750e-01
  5.58631524e-01  5.61755884e-01  5.63405271e-01  5.64467643e-01
  5.67277039e-01  5.68842616e-01  5.69919893e-01  5.71393177e-01
  5.72240557e-01  5.73763011e-01  5.76042955e-01  5.76680509e-01
  5.79300889e-01  5.81753291e-01  5.82476464e-01  5.83520083e-01
  5.84816071e-01  5.85784028e-01  5.86733432e-01  5.89160953e-01
  5.94167954e-01  5.97600348e-01  5.98921830e-01  6.01154073e-01
  6.02722219e-01  6.04468176e-01  6.06003592e-01  6.12344909e-01
  6.14463483e-01  6.15785114e-01  6.17353773e-01  6.19171772e-01
  6.23164571e-01  6.26180991e-01  6.27072894e-01  6.31576794e-01
  6.36929404e-01  6.37607766e-01  6.38074399e-01  6.39619808e-01
  6.48916811e-01  6.52662934e-01  6.53343410e-01  6.57906280e-01
  6.59610702e-01  6.63736593e-01  6.66404577e-01  6.70242476e-01
  6.72404481e-01  6.74484373e-01  6.77301356e-01  6.79478192e-01
  6.82486924e-01  6.83677767e-01  6.85063462e-01  6.86408364e-01
  6.90689218e-01  6.94810109e-01  6.95726732e-01  6.99071015e-01
  7.04669133e-01  7.06586610e-01  7.08828378e-01  7.11550495e-01
  7.12839929e-01  7.18515940e-01  7.21462376e-01  7.24834035e-01
  7.25002064e-01  7.28247362e-01  7.29862332e-01  7.32379266e-01
  7.35148999e-01  7.36858248e-01  7.39418926e-01  7.42767187e-01
  7.46666792e-01  7.50446462e-01  7.51568286e-01  7.52998861e-01
  7.57819819e-01  7.59541184e-01  7.63462306e-01  7.64095994e-01
  7.67560227e-01  7.69914842e-01  7.73722117e-01  7.75591001e-01
  7.82700522e-01  7.86418739e-01  7.88684501e-01  7.91062499e-01
  7.94164807e-01  7.98106054e-01  8.00323173e-01  8.02429307e-01
  8.03876180e-01  8.06747678e-01  8.10111265e-01  8.13275502e-01
  8.15417915e-01  8.19784547e-01  8.23023410e-01  8.25841317e-01
  8.28596251e-01  8.30299507e-01  8.33047950e-01  8.36801464e-01
  8.37221431e-01  8.40963826e-01  8.43392395e-01  8.48302448e-01
  8.49914793e-01  8.52398509e-01  8.57391622e-01  8.59796556e-01
  8.63375437e-01  8.68143417e-01  8.72847400e-01  8.74430230e-01
  8.77952747e-01  8.84430492e-01  8.87496209e-01  8.92357942e-01
  8.94310000e-01  8.99884722e-01  9.02290410e-01  9.03837957e-01
  9.07953630e-01  9.12366163e-01  9.15559018e-01  9.17566104e-01
  9.24362465e-01  9.27676676e-01  9.30426191e-01  9.34403309e-01
  9.36096294e-01  9.40979998e-01  9.48681510e-01  9.52559004e-01
  9.60654744e-01  9.62865924e-01  9.64001118e-01  9.67866898e-01
  9.72691655e-01  9.77062828e-01  9.78567091e-01  9.80659768e-01
  9.84505366e-01  9.89348412e-01  9.89695311e-01  9.93580428e-01
  9.95034138e-01  1.00071014e+00  1.00297253e+00  1.00703889e+00
  1.00934330e+00  1.01385947e+00  1.01513910e+00  1.01645182e+00
  1.01930634e+00  1.02731646e+00  1.03307098e+00  1.03514548e+00
  1.03629897e+00  1.03870673e+00  1.04239852e+00  1.04616608e+00
  1.04875109e+00  1.05319422e+00  1.05445784e+00  1.06092873e+00
  1.06600149e+00  1.07140921e+00  1.07278567e+00  1.07781264e+00
  1.07856974e+00  1.08085360e+00  1.08301376e+00  1.08316688e+00
  1.08919625e+00  1.09410776e+00  1.09902752e+00  1.10703422e+00
  1.11037999e+00  1.11213617e+00  1.11612309e+00  1.11688595e+00
  1.12430617e+00  1.12624343e+00  1.12745902e+00  1.13286800e+00
  1.13746069e+00  1.14086273e+00  1.14262044e+00  1.14406035e+00
  1.14595266e+00  1.14947585e+00  1.15595238e+00  1.15886119e+00
  1.16111120e+00  1.16641304e+00  1.16710816e+00  1.17407097e+00
  1.17787902e+00  1.17989301e+00  1.18579977e+00  1.18699953e+00
  1.19136651e+00  1.19337129e+00  1.19467520e+00  1.19742682e+00
  1.19985389e+00  1.20432669e+00  1.20660948e+00  1.21208738e+00
  1.21880852e+00  1.22187513e+00  1.22359935e+00  1.22999063e+00
  1.23190528e+00  1.23433044e+00  1.23679942e+00  1.24271456e+00
  1.24770597e+00  1.24983436e+00  1.25340296e+00  1.25972306e+00
  1.26351626e+00  1.27065856e+00  1.27215732e+00  1.27907730e+00
  1.28245077e+00  1.28550404e+00  1.28652075e+00  1.29339176e+00
  1.29586592e+00  1.29894775e+00  1.30539742e+00  1.30738659e+00
  1.30912207e+00  1.31341595e+00  1.32051758e+00  1.32293752e+00
  1.32522048e+00  1.32968296e+00  1.33076334e+00  1.33338601e+00
  1.33744848e+00  1.34134195e+00  1.34596552e+00  1.34904636e+00
  1.35225301e+00  1.35525518e+00  1.36079146e+00  1.36475321e+00
  1.36712626e+00  1.37176886e+00  1.37294303e+00  1.37537617e+00
  1.37997287e+00  1.38218366e+00  1.38780072e+00  1.39022447e+00
  1.39348860e+00  1.39875671e+00  1.40658054e+00  1.40770796e+00
  1.40983252e+00  1.41483882e+00  1.41739303e+00  1.41896568e+00
  1.42641778e+00  1.42995056e+00  1.43399488e+00  1.43957643e+00
  1.44319945e+00  1.44588697e+00  1.45587325e+00  1.45633286e+00
  1.46149491e+00  1.46600239e+00  1.46841095e+00  1.47507424e+00
  1.47721156e+00  1.47773223e+00  1.48137477e+00  1.48430262e+00
  1.48540502e+00  1.49262167e+00  1.49862983e+00  1.50084037e+00
  1.50394691e+00  1.51333894e+00  1.52085220e+00  1.53096981e+00
  1.53597998e+00  1.54080211e+00  1.54556472e+00  1.54590025e+00
  1.55079249e+00  1.55225296e+00  1.55727376e+00  1.56062011e+00
  1.56329754e+00  1.57048618e+00  1.57583670e+00  1.58235776e+00
  1.58603085e+00  1.59170951e+00  1.59807698e+00  1.60285684e+00
  1.60719917e+00  1.61368676e+00  1.61532380e+00  1.61928532e+00
  1.61955885e+00  1.62716047e+00  1.62901797e+00  1.63249067e+00
  1.63408353e+00  1.63817033e+00  1.64004622e+00  1.64143682e+00
  1.64294735e+00  1.64469314e+00  1.64603241e+00  1.64667261e+00
  1.65070355e+00  1.65227709e+00  1.65256813e+00  1.65499123e+00
  1.65594662e+00  1.65846213e+00  1.66099079e+00  1.66233271e+00
  1.66435482e+00  1.66705327e+00  1.67108343e+00  1.67169467e+00
  1.67358854e+00  1.67515543e+00  1.67770707e+00  1.68122950e+00
  1.68433592e+00  1.68636300e+00  1.68810847e+00  1.69185431e+00
  1.69647566e+00  1.69913700e+00  1.70013650e+00  1.70364398e+00
  1.70798046e+00  1.71274286e+00  1.71416783e+00  1.71476037e+00
  1.71559093e+00  1.71676030e+00  1.71716024e+00  1.72124634e+00
  1.72418656e+00  1.72628633e+00  1.72837377e+00  1.72982031e+00
  1.73021184e+00  1.73389790e+00  1.73616711e+00  1.73854306e+00
  1.73914403e+00  1.74366056e+00  1.74798377e+00  1.75147264e+00
  1.75602876e+00  1.75701069e+00  1.75973772e+00  1.76489947e+00
  1.76654515e+00  1.76927740e+00  1.77146304e+00  1.77417263e+00
  1.77682272e+00  1.78041106e+00  1.78136558e+00  1.79001757e+00
  1.79048553e+00  1.79770630e+00  1.79897250e+00  1.80221562e+00
  1.81137223e+00  1.81178586e+00  1.81509960e+00  1.81930861e+00
  1.82732160e+00  1.82826195e+00  1.82977895e+00  1.83352982e+00
  1.84318748e+00  1.84376183e+00  1.84993592e+00  1.85480003e+00
  1.85943759e+00  1.85968669e+00  1.86889894e+00  1.87147625e+00
  1.87699684e+00  1.88178924e+00  1.88645219e+00  1.89040711e+00
  1.89604828e+00  1.89861904e+00  1.90216843e+00  1.90542804e+00
  1.91132701e+00  1.91402903e+00  1.91958298e+00  1.92533501e+00
  1.92908203e+00  1.93076638e+00  1.93607253e+00  1.94056180e+00
  1.94260127e+00  1.95054406e+00  1.95159360e+00  1.95580989e+00
  1.96623968e+00  1.96945692e+00  1.98035424e+00  1.98180831e+00
  1.98250646e+00  1.98779005e+00  1.98991939e+00  1.99158073e+00
  1.99655241e+00  1.99734050e+00  2.00643442e+00  2.00675548e+00
  2.01254947e+00  2.01604122e+00  2.02136577e+00  2.02412201e+00
  2.02672925e+00  2.03561393e+00  2.03644738e+00  2.04105126e+00
  2.04796378e+00  2.05664578e+00  2.05789262e+00  2.06583794e+00
  2.06696042e+00  2.06878401e+00  2.07318066e+00  2.07649674e+00
  2.08341887e+00  2.08689421e+00  2.08805425e+00  2.09273794e+00
  2.09972472e+00  2.10522673e+00  2.10789766e+00  2.11294075e+00
  2.11537042e+00  2.11818645e+00  2.12118815e+00  2.12390661e+00
  2.12426454e+00  2.12914903e+00  2.13219729e+00  2.13505028e+00
  2.14697603e+00  2.14928936e+00  2.14996792e+00  2.15049320e+00
  2.15447909e+00  2.15938579e+00  2.16619181e+00  2.17033898e+00
  2.17285968e+00  2.17590147e+00  2.17852620e+00  2.18276279e+00
  2.18609786e+00  2.18767340e+00  2.18907419e+00  2.19087447e+00
  2.20091851e+00  2.20546122e+00  2.20876066e+00  2.21295627e+00
  2.22178877e+00  2.22288471e+00  2.22954595e+00  2.23191014e+00
  2.23862641e+00  2.24113440e+00  2.24359733e+00  2.25443982e+00
  2.25812649e+00  2.25901921e+00  2.26115491e+00  2.26652089e+00
  2.27044272e+00  2.27293854e+00  2.27569174e+00  2.28031093e+00
  2.28282096e+00  2.28772230e+00  2.28959974e+00  2.29223729e+00
  2.29439162e+00  2.29973217e+00  2.30266636e+00  2.30948825e+00
  2.31948769e+00  2.32728450e+00  2.32995874e+00  2.33650639e+00
  2.34229596e+00  2.34428277e+00  2.35201685e+00  2.35403251e+00
  2.35631291e+00  2.36308431e+00  2.36680285e+00  2.36949478e+00
  2.37914293e+00  2.38297037e+00  2.38463899e+00  2.38853643e+00
  2.39234439e+00  2.39566886e+00  2.39640083e+00  2.40181044e+00
  2.40448613e+00  2.40573143e+00  2.41381199e+00  2.42002209e+00
  2.42034144e+00  2.42222268e+00  2.42542473e+00  2.42787877e+00
  2.43145303e+00  2.43529449e+00  2.43696665e+00  2.43978553e+00
  2.44295620e+00  2.44956095e+00  2.45984054e+00  2.46152065e+00
  2.46560781e+00  2.47013312e+00  2.47437286e+00  2.47726288e+00
  2.47905947e+00  2.48196111e+00  2.48483719e+00  2.48719977e+00
  2.49023082e+00  2.49371006e+00  2.49679860e+00  2.50094734e+00
  2.50388956e+00  2.50614270e+00  2.50671901e+00  2.51448412e+00
  2.52007918e+00  2.52200904e+00  2.52397864e+00  2.52769688e+00
  2.52873094e+00  2.53250613e+00  2.53505573e+00  2.53802701e+00
  2.54506966e+00  2.54916738e+00  2.55357427e+00  2.55667513e+00
  2.56201575e+00  2.56438731e+00  2.56780848e+00  2.57284379e+00
  2.57399389e+00  2.58521019e+00  2.58777523e+00  2.59223181e+00
  2.59913518e+00  2.60188539e+00  2.60581351e+00  2.60602498e+00
  2.61367284e+00  2.61881004e+00  2.62190589e+00  2.62327100e+00
  2.62383850e+00  2.62570345e+00  2.62694656e+00  2.62859942e+00
  2.63039966e+00  2.63342602e+00  2.63407491e+00  2.63769203e+00
  2.63898185e+00  2.64259100e+00  2.64439005e+00  2.64843985e+00
  2.65626819e+00  2.65825462e+00  2.66138169e+00  2.66244030e+00
  2.66510176e+00  2.66823450e+00  2.67085819e+00  2.67274713e+00
  2.67664276e+00  2.68135430e+00  2.68299693e+00  2.68652744e+00
  2.68753238e+00  2.69023445e+00  2.69334355e+00  2.69442953e+00
  2.70008700e+00  2.70226804e+00  2.70555483e+00  2.70668562e+00
  2.70891564e+00  2.71084387e+00  2.71426140e+00  2.71514414e+00
  2.71928945e+00  2.72270208e+00  2.72693568e+00  2.72975214e+00
  2.73352719e+00  2.73390781e+00  2.74018013e+00  2.74194961e+00
  2.74330071e+00  2.74929883e+00  2.75504576e+00  2.75808817e+00
  2.76223261e+00  2.76536137e+00  2.77221386e+00  2.77547559e+00
  2.78051746e+00  2.78260205e+00  2.78767562e+00  2.79122939e+00
  2.79673660e+00  2.80123117e+00  2.80342856e+00  2.80358241e+00
  2.80703321e+00  2.81203465e+00  2.81817845e+00  2.81935820e+00
  2.82302388e+00  2.82498537e+00  2.82902169e+00  2.83150603e+00
  2.83257533e+00  2.83929121e+00  2.84357489e+00  2.84420540e+00
  2.84851110e+00  2.85111172e+00  2.85236485e+00  2.86425013e+00
  2.86577487e+00  2.86745148e+00  2.86880948e+00  2.87011085e+00
  2.87238029e+00  2.87414221e+00  2.87902564e+00  2.88123086e+00
  2.88313032e+00  2.88661047e+00  2.89103145e+00  2.89481974e+00
  2.89637567e+00  2.89851362e+00  2.90189626e+00  2.90600446e+00
  2.91183380e+00  2.91564981e+00  2.91625971e+00  2.92263467e+00
  2.92331617e+00  2.92767733e+00  2.93386681e+00  2.93769146e+00
  2.94180795e+00  2.94683390e+00  2.94856140e+00  2.95263248e+00
  2.95328254e+00  2.95466021e+00  2.95549836e+00  2.95711790e+00
  2.96310229e+00  2.96607589e+00  2.97030191e+00  2.97670560e+00
  2.97710512e+00  2.97814081e+00  2.98391716e+00  2.98617397e+00
  2.99269804e+00  2.99549469e+00  3.00299503e+00  3.00400810e+00
  3.00630586e+00  3.00782749e+00  3.01331174e+00  3.01497657e+00
  3.01868091e+00  3.01911235e+00  3.02299648e+00  3.02425179e+00
  3.02634397e+00  3.02971273e+00  3.03676265e+00  3.04359686e+00
  3.04456732e+00  3.04755998e+00  3.04907450e+00  3.05230438e+00
  3.05933911e+00  3.06512134e+00  3.07108235e+00  3.07617597e+00
  3.08296970e+00  3.08703891e+00  3.09018294e+00  3.09116029e+00
  3.09790062e+00  3.09896789e+00  3.10310605e+00  3.10466025e+00
  3.10804139e+00  3.11338380e+00  3.11683302e+00  3.12217763e+00
  3.12654070e+00  3.13224021e+00  3.13396939e+00  3.13720855e+00
  3.14037651e+00  3.14569003e+00  3.14766846e+00  3.14907351e+00
  3.15630004e+00  3.16077726e+00  3.16362852e+00  3.16597097e+00
  3.16960430e+00  3.17353394e+00  3.17855262e+00  3.17888468e+00
  3.18057491e+00  3.18414749e+00  3.18621243e+00  3.19116988e+00
  3.19265914e+00  3.19594227e+00  3.19774867e+00  3.20377313e+00
  3.20587193e+00  3.20881974e+00  3.21382190e+00  3.21426378e+00
  3.21792505e+00  3.22220161e+00  3.22496930e+00  3.22830271e+00
  3.22927207e+00  3.23253471e+00  3.23499283e+00  3.23722118e+00
  3.24184667e+00  3.24231036e+00  3.24574120e+00  3.24939251e+00
  3.25077170e+00  3.25312423e+00  3.25720101e+00  3.25802044e+00
  3.25948565e+00  3.26478854e+00  3.26700480e+00  3.26825450e+00
  3.27140886e+00  3.27289598e+00  3.27432753e+00  3.27568158e+00
  3.27876154e+00  3.28178928e+00  3.28752544e+00  3.28946830e+00
  3.29011405e+00  3.29275400e+00  3.29536798e+00  3.29943379e+00
  3.30524159e+00  3.30691017e+00  3.31001221e+00  3.31277216e+00
  3.31665226e+00  3.31862162e+00  3.32054667e+00  3.32467125e+00
  3.32649022e+00  3.33051639e+00  3.33265944e+00  3.33741053e+00
  3.34100681e+00  3.34241999e+00  3.34495184e+00  3.34954938e+00
  3.35085871e+00  3.35436693e+00  3.35792854e+00  3.36128879e+00
  3.36424770e+00  3.36548990e+00  3.36633633e+00  3.36834166e+00
  3.37094977e+00  3.37628746e+00  3.38041572e+00  3.38281461e+00
  3.38529426e+00  3.38882743e+00  3.38947223e+00  3.39366629e+00
  3.39542280e+00  3.39604269e+00  3.40137673e+00  3.40611360e+00
  3.40763262e+00  3.41150871e+00  3.41385769e+00  3.41902000e+00
  3.42086538e+00  3.42486748e+00  3.42725172e+00  3.42993055e+00
  3.43423090e+00  3.43541803e+00  3.43678195e+00  3.43838149e+00
  3.44310494e+00  3.44660790e+00  3.44762140e+00  3.44864358e+00
  3.45313811e+00  3.45614105e+00  3.45980412e+00  3.46123976e+00
  3.46490998e+00  3.46657232e+00  3.46696046e+00  3.46928613e+00
  3.47230273e+00  3.47637796e+00  3.47762336e+00  3.48388192e+00
  3.48821138e+00  3.49009190e+00  3.49253646e+00  3.49494837e+00
  3.49812255e+00  3.50045375e+00  3.50176550e+00  3.50277201e+00
  3.50534375e+00  3.51251605e+00  3.51463899e+00  3.51619477e+00
  3.52406956e+00  3.52480079e+00  3.53064048e+00  3.53514943e+00
  3.53774329e+00  3.53895964e+00  3.54116413e+00  3.54452758e+00
  3.54916715e+00  3.55178924e+00  3.55682620e+00  3.55926538e+00
  3.56171183e+00  3.56863939e+00  3.57346809e+00  3.57826767e+00
  3.58069244e+00  3.58660122e+00  3.58794071e+00  3.58980178e+00
  3.59573981e+00  3.60178027e+00  3.60398331e+00  3.60637968e+00
  3.60840928e+00  3.61248594e+00  3.61503029e+00  3.61760917e+00
  3.62177434e+00  3.62515067e+00  3.62606671e+00  3.62837473e+00
  3.62960675e+00  3.63649789e+00  3.64178952e+00  3.64484968e+00
  3.64639881e+00  3.65166893e+00  3.65458672e+00  3.65708123e+00
  3.66168299e+00  3.66875207e+00  3.67072736e+00  3.67492041e+00
  3.67616351e+00  3.67855425e+00  3.68492291e+00  3.68781951e+00
  3.69085384e+00  3.69156877e+00  3.69563986e+00  3.70242469e+00
  3.70655771e+00  3.70776144e+00  3.71206786e+00  3.71685594e+00
  3.71895546e+00  3.72242684e+00  3.72551408e+00  3.73128550e+00
  3.73158281e+00  3.73869262e+00  3.74421092e+00  3.74684519e+00
  3.74821472e+00  3.75613179e+00  3.76269533e+00  3.76328973e+00
  3.77032709e+00  3.77490914e+00  3.77645915e+00  3.78113189e+00
  3.79239881e+00  3.79929547e+00  3.80113204e+00  3.80948890e+00
  3.81278840e+00  3.81446467e+00  3.81566486e+00  3.81859998e+00
  3.82454526e+00  3.82726679e+00  3.83465028e+00  3.84488918e+00
  3.84656049e+00  3.85306193e+00  3.85461941e+00  3.86596943e+00
  3.86807327e+00  3.87051980e+00  3.87345213e+00  3.87593530e+00
  3.88291953e+00  3.88425502e+00  3.89162656e+00  3.90228374e+00
  3.90262760e+00  3.90945520e+00  3.92021075e+00  3.92496801e+00
  3.92787274e+00  3.93006492e+00  3.93212464e+00  3.94556374e+00
  3.94861818e+00  3.95002223e+00  3.95742852e+00  3.96316357e+00
  3.97285651e+00  3.98114494e+00  3.98486135e+00  3.98842614e+00
  3.98982938e+00  3.99702469e+00  3.99847422e+00  4.01025833e+00
  4.01557142e+00  4.01850933e+00  4.02288103e+00  4.03199194e+00
  4.03517252e+00  4.04171772e+00  4.04423095e+00  4.04957412e+00
  4.05667654e+00  4.05835037e+00  4.06473580e+00  4.07014939e+00
  4.07023286e+00  4.07436087e+00  4.08034363e+00  4.08157471e+00
  4.09163055e+00  4.09741009e+00  4.10043449e+00  4.10554672e+00
  4.10829750e+00  4.11374744e+00  4.11918510e+00  4.12556234e+00
  4.12837317e+00  4.14243235e+00  4.14285623e+00  4.14508665e+00
  4.15435335e+00  4.15698582e+00  4.16351530e+00  4.17778598e+00
  4.18154785e+00  4.18686283e+00  4.18945693e+00  4.19706256e+00
  4.19900378e+00  4.21117957e+00  4.21372310e+00  4.22896261e+00
  4.23186969e+00  4.23602875e+00  4.24089941e+00  4.24272535e+00
  4.24546106e+00  4.25575626e+00  4.26637025e+00  4.27108884e+00
  4.28016635e+00  4.28482891e+00  4.30154423e+00  4.30734062e+00
  4.31517143e+00  4.31827566e+00  4.32313542e+00  4.33359589e+00
  4.33842671e+00  4.34313393e+00  4.34495732e+00  4.34736027e+00
  4.35476373e+00  4.35660230e+00  4.35756399e+00  4.36389686e+00
  4.37391681e+00  4.37794954e+00  4.37972742e+00  4.38779325e+00
  4.39342015e+00  4.39710148e+00  4.39956443e+00  4.40345394e+00
  4.40710743e+00  4.41223239e+00  4.41602041e+00  4.42232562e+00
  4.42659758e+00  4.43560275e+00  4.44027340e+00  4.44411716e+00
  4.44689073e+00  4.45840372e+00  4.46892181e+00  4.47223044e+00
  4.47688337e+00  4.48397006e+00  4.49028930e+00  4.49327891e+00
  4.49971873e+00  4.50814763e+00  4.51016687e+00  4.51234028e+00
  4.51564752e+00  4.51808470e+00  4.52348600e+00  4.52757384e+00
  4.53976085e+00  4.54226779e+00  4.54727854e+00  4.55455005e+00
  4.55872945e+00  4.56151956e+00  4.57157833e+00  4.57504987e+00
  4.57687604e+00  4.58033426e+00  4.58577524e+00  4.58705080e+00
  4.59181691e+00  4.60024640e+00  4.61623557e+00  4.61729580e+00
  4.62586211e+00  4.63473709e+00  4.63567200e+00  4.64005455e+00
  4.64720622e+00  4.65920561e+00  4.67248787e+00  4.68762562e+00
  4.68913539e+00  4.69562117e+00  4.70422238e+00  4.71326953e+00
  4.71811364e+00  4.72500698e+00  4.73574451e+00  4.73770228e+00
  4.74182622e+00  4.75194112e+00  4.75655587e+00  4.75952710e+00
  4.76705585e+00  4.78108437e+00  4.79535449e+00  4.79612664e+00
  4.79805618e+00  4.80479474e+00  4.81383117e+00  4.83204115e+00
  4.83896839e+00  4.84007264e+00  4.85203275e+00  4.87467797e+00
  4.87969145e+00  4.88843475e+00  4.90181678e+00  4.91240862e+00
  4.92003009e+00  4.93453994e+00  4.94555476e+00  4.95034804e+00
  4.96467132e+00  4.97237881e+00  4.98726667e+00  4.99578116e+00
  5.00264317e+00  5.00984256e+00  5.01682076e+00  5.02191592e+00
  5.03297979e+00  5.05390744e+00  5.06221225e+00  5.06874350e+00
  5.07704881e+00  5.09570669e+00  5.10267759e+00  5.12980153e+00
  5.13289840e+00  5.14758499e+00  5.16512548e+00  5.18202432e+00
  5.20154254e+00  5.20559539e+00  5.21526229e+00  5.22961914e+00
  5.23693222e+00  5.23889912e+00  5.26975808e+00  5.27412052e+00
  5.28212681e+00  5.28893483e+00  5.30648773e+00  5.32140209e+00
  5.32646081e+00  5.34173931e+00  5.37073110e+00  5.37661635e+00
  5.40598378e+00  5.41831824e+00  5.42117574e+00  5.44792705e+00
  5.45014255e+00  5.48034053e+00  5.48704396e+00  5.52988139e+00
  5.53355181e+00  5.57690404e+00  5.61453829e+00  5.62340802e+00
  5.65970506e+00  5.67984263e+00  5.72327611e+00  5.74218746e+00
  5.75767602e+00  5.87245620e+00  5.88155808e+00  6.02599424e+00
  6.38419535e+00  6.61576464e+00  6.86189834e+00  6.95851673e+00
  7.12398653e+00  7.28190587e+00  2.23452702e+01  2.23966357e+01
  2.24046476e+01  2.24209404e+01  2.24417659e+01  2.24490488e+01
  2.24568612e+01  2.24655427e+01  2.24692608e+01  2.24826089e+01
  2.24961683e+01  2.25257657e+01  2.25472652e+01  2.25677179e+01
  2.25772765e+01  2.25905414e+01  2.26029707e+01  2.26162036e+01
  2.26368650e+01  2.26532657e+01  2.26634139e+01  2.26655504e+01
  2.26714542e+01  2.27012638e+01  2.27169794e+01  2.27493150e+01
  2.27595388e+01  2.27695746e+01  2.27967045e+01  2.28081872e+01
  2.28332490e+01  2.28549035e+01  2.29001905e+01  2.29111499e+01
  2.30501327e+01  2.30827907e+01  2.31239732e+01  2.31585678e+01
  2.31758632e+01  2.33100213e+01  4.41180259e+01]
nelec by numeric integration = 306.00013739943483
    CPU time for vxc    435.10 sec, wall time     23.75 sec
    CPU time for df vj and vk   2830.13 sec, wall time    160.88 sec
    CPU time for df vj and vk   2363.54 sec, wall time    120.38 sec
E1 = -9514.108531056529  Ecoul = 4451.1790300229095  Exc = -246.86700460562622
cycle= 1 E= -1634.42587175347  delta_E= 1.17e-07  |g|= 2.81e-06  |ddm|= 0.000152
    CPU time for cycle= 1   5642.20 sec, wall time    306.79 sec
  HOMO = -0.230709358542027  LUMO = -0.0377019218534581
  mo_energy =
[-1.91917525e+01 -1.03188915e+01 -1.02765002e+01 -1.02762835e+01
 -1.02758982e+01 -1.02734241e+01 -1.02713349e+01 -1.02711745e+01
 -1.02667083e+01 -1.02663599e+01 -1.02655197e+01 -1.02645248e+01
 -1.02636907e+01 -1.02634535e+01 -1.02633345e+01 -1.02629497e+01
 -1.02624444e+01 -1.02614391e+01 -1.02602241e+01 -1.02595251e+01
 -1.02588033e+01 -1.02577456e+01 -1.02566879e+01 -1.02566226e+01
 -1.02565348e+01 -1.02565266e+01 -1.02563776e+01 -1.02562111e+01
 -1.02550962e+01 -1.02543697e+01 -1.02538753e+01 -1.02534143e+01
 -1.02527292e+01 -1.02521673e+01 -1.02510194e+01 -1.02507118e+01
 -1.02496800e+01 -1.02479624e+01 -1.02461264e+01 -1.02448317e+01
 -1.02408326e+01 -1.14616593e+00 -9.83888826e-01 -9.72180669e-01
 -9.68183602e-01 -9.61363976e-01 -9.54232046e-01 -9.49104188e-01
 -9.29972962e-01 -9.21856795e-01 -9.16391885e-01 -9.07315215e-01
 -8.98711327e-01 -8.83670856e-01 -8.75388115e-01 -8.59977618e-01
 -8.48790549e-01 -8.34106614e-01 -8.20812744e-01 -8.17180880e-01
 -8.15897610e-01 -8.13864597e-01 -8.07428123e-01 -8.05959048e-01
 -8.02294661e-01 -7.96720807e-01 -7.83988819e-01 -7.58231458e-01
 -7.42499556e-01 -7.25456431e-01 -7.14451924e-01 -6.93129087e-01
 -6.82983657e-01 -6.82394341e-01 -6.78192826e-01 -6.64844387e-01
 -6.53925934e-01 -6.48584636e-01 -6.46109764e-01 -6.36105760e-01
 -6.25326825e-01 -6.11884162e-01 -6.07867635e-01 -6.03717161e-01
 -5.95387768e-01 -5.87981437e-01 -5.82657440e-01 -5.79945144e-01
 -5.73043710e-01 -5.71691222e-01 -5.63252395e-01 -5.57665300e-01
 -5.56033592e-01 -5.50628217e-01 -5.48384615e-01 -5.39528417e-01
 -5.35346750e-01 -5.31553472e-01 -5.31176025e-01 -5.30637608e-01
 -5.29227578e-01 -5.28322575e-01 -5.26883933e-01 -5.26455760e-01
 -5.24315810e-01 -5.21122560e-01 -5.18374452e-01 -5.05658347e-01
 -5.02824771e-01 -5.02284403e-01 -5.00159042e-01 -4.96987934e-01
 -4.92767427e-01 -4.91033655e-01 -4.84621354e-01 -4.83516835e-01
 -4.82569208e-01 -4.77734116e-01 -4.76135484e-01 -4.73114298e-01
 -4.69990680e-01 -4.69702374e-01 -4.66222744e-01 -4.64623741e-01
 -4.61912718e-01 -4.58564748e-01 -4.53521027e-01 -4.52448269e-01
 -4.51009389e-01 -4.50141020e-01 -4.47708639e-01 -4.45116753e-01
 -4.42563795e-01 -4.41841553e-01 -4.40627466e-01 -4.38155989e-01
 -4.37791428e-01 -4.33627815e-01 -4.31160608e-01 -4.22542574e-01
 -4.20376240e-01 -4.16973057e-01 -4.10530087e-01 -4.08220673e-01
 -3.97267218e-01 -3.90211859e-01 -3.79136799e-01 -3.75895944e-01
 -3.49688119e-01 -3.26256811e-01 -2.98423841e-01 -2.67340801e-01
 -2.30709359e-01 -3.77019219e-02  7.57172753e-03  4.65528496e-02
  8.07448214e-02  9.75688665e-02  1.04059705e-01  1.08668354e-01
  1.12146911e-01  1.15772796e-01  1.21110703e-01  1.24086824e-01
  1.26959237e-01  1.28726729e-01  1.31344524e-01  1.35614866e-01
  1.38068202e-01  1.39794265e-01  1.42909455e-01  1.43790087e-01
  1.45718039e-01  1.47226266e-01  1.50794741e-01  1.52822771e-01
  1.56049200e-01  1.56625471e-01  1.58152025e-01  1.58737252e-01
  1.64363748e-01  1.65980083e-01  1.67041656e-01  1.69324696e-01
  1.70032939e-01  1.72975289e-01  1.75099470e-01  1.79050456e-01
  1.80491987e-01  1.82851220e-01  1.84466220e-01  1.88055680e-01
  1.92775135e-01  1.96319386e-01  1.97904044e-01  1.99633038e-01
  1.99703563e-01  2.02949965e-01  2.05254860e-01  2.06313264e-01
  2.07686907e-01  2.10472569e-01  2.11648726e-01  2.14789404e-01
  2.16112189e-01  2.16903336e-01  2.18104120e-01  2.21074275e-01
  2.23901545e-01  2.25075754e-01  2.26423963e-01  2.27868510e-01
  2.30374569e-01  2.32697307e-01  2.33794160e-01  2.35985110e-01
  2.39002880e-01  2.39273096e-01  2.40332155e-01  2.44572423e-01
  2.46174083e-01  2.49036392e-01  2.52341615e-01  2.53568235e-01
  2.54948117e-01  2.56030961e-01  2.57616509e-01  2.59388638e-01
  2.63928774e-01  2.65264185e-01  2.67126164e-01  2.67920517e-01
  2.68814460e-01  2.69739642e-01  2.72095798e-01  2.74869208e-01
  2.77693041e-01  2.79224762e-01  2.82975388e-01  2.85820181e-01
  2.89617845e-01  2.90593670e-01  2.90753167e-01  2.94866539e-01
  2.96088483e-01  2.97783682e-01  2.98306981e-01  3.02357572e-01
  3.03205787e-01  3.05643066e-01  3.10294609e-01  3.15187674e-01
  3.17914143e-01  3.20184968e-01  3.20945615e-01  3.24168061e-01
  3.24705213e-01  3.25102044e-01  3.27161407e-01  3.33061552e-01
  3.36940305e-01  3.39986426e-01  3.41394313e-01  3.42433279e-01
  3.45610731e-01  3.47091457e-01  3.49586925e-01  3.52014921e-01
  3.54646510e-01  3.56692582e-01  3.59237901e-01  3.61917426e-01
  3.63847766e-01  3.65618144e-01  3.66709925e-01  3.70008306e-01
  3.72551837e-01  3.74381254e-01  3.75872623e-01  3.79413730e-01
  3.81430996e-01  3.84431427e-01  3.90296594e-01  3.91662981e-01
  3.93187194e-01  3.94649368e-01  3.97963806e-01  4.02792973e-01
  4.04196061e-01  4.08775107e-01  4.09007795e-01  4.12441051e-01
  4.14745425e-01  4.15897641e-01  4.16629991e-01  4.20879845e-01
  4.22062792e-01  4.22904499e-01  4.24945366e-01  4.26258092e-01
  4.29497608e-01  4.30573748e-01  4.32317908e-01  4.33963414e-01
  4.35576175e-01  4.39131714e-01  4.41797608e-01  4.45284466e-01
  4.49261039e-01  4.50104269e-01  4.52176829e-01  4.54147914e-01
  4.54664253e-01  4.56986390e-01  4.59146568e-01  4.60157682e-01
  4.62824174e-01  4.64687511e-01  4.69070960e-01  4.69508924e-01
  4.72502660e-01  4.76157381e-01  4.78246017e-01  4.78859332e-01
  4.80546046e-01  4.83368332e-01  4.84591746e-01  4.86505319e-01
  4.88280957e-01  4.90878954e-01  4.93175215e-01  4.93730765e-01
  4.96280092e-01  4.98241722e-01  4.99595095e-01  5.01246965e-01
  5.03612839e-01  5.04568633e-01  5.07696302e-01  5.08906146e-01
  5.13393390e-01  5.14221056e-01  5.15118979e-01  5.15435318e-01
  5.17533710e-01  5.18876803e-01  5.21323481e-01  5.23618935e-01
  5.24446345e-01  5.24961950e-01  5.27168841e-01  5.29144748e-01
  5.29950756e-01  5.33018114e-01  5.35117284e-01  5.35228133e-01
  5.36783367e-01  5.37535783e-01  5.39708322e-01  5.40945340e-01
  5.41457788e-01  5.41632329e-01  5.47250304e-01  5.50437904e-01
  5.50893802e-01  5.53508878e-01  5.54244157e-01  5.54756749e-01
  5.58631417e-01  5.61755814e-01  5.63405169e-01  5.64467705e-01
  5.67277038e-01  5.68842575e-01  5.69919911e-01  5.71393169e-01
  5.72240568e-01  5.73762939e-01  5.76042881e-01  5.76680525e-01
  5.79300818e-01  5.81753284e-01  5.82476383e-01  5.83520092e-01
  5.84816005e-01  5.85783981e-01  5.86733414e-01  5.89160874e-01
  5.94167938e-01  5.97600334e-01  5.98921732e-01  6.01154020e-01
  6.02722202e-01  6.04468090e-01  6.06003607e-01  6.12344890e-01
  6.14463434e-01  6.15784986e-01  6.17353666e-01  6.19171756e-01
  6.23164499e-01  6.26180921e-01  6.27072929e-01  6.31576778e-01
  6.36929328e-01  6.37607706e-01  6.38074286e-01  6.39619804e-01
  6.48916832e-01  6.52662936e-01  6.53343336e-01  6.57906168e-01
  6.59610660e-01  6.63736563e-01  6.66404549e-01  6.70242482e-01
  6.72404478e-01  6.74484406e-01  6.77301293e-01  6.79478103e-01
  6.82486889e-01  6.83677721e-01  6.85063410e-01  6.86408325e-01
  6.90689178e-01  6.94810010e-01  6.95726652e-01  6.99071024e-01
  7.04669139e-01  7.06586613e-01  7.08828330e-01  7.11550419e-01
  7.12839874e-01  7.18515867e-01  7.21462327e-01  7.24833985e-01
  7.25002034e-01  7.28247372e-01  7.29862270e-01  7.32379252e-01
  7.35148962e-01  7.36858169e-01  7.39418927e-01  7.42767131e-01
  7.46666743e-01  7.50446408e-01  7.51568282e-01  7.52998870e-01
  7.57819859e-01  7.59541170e-01  7.63462266e-01  7.64095971e-01
  7.67560206e-01  7.69914833e-01  7.73722090e-01  7.75590974e-01
  7.82700455e-01  7.86418647e-01  7.88684511e-01  7.91062440e-01
  7.94164787e-01  7.98105973e-01  8.00323107e-01  8.02429225e-01
  8.03876200e-01  8.06747598e-01  8.10111287e-01  8.13275441e-01
  8.15417887e-01  8.19784454e-01  8.23023388e-01  8.25841216e-01
  8.28596252e-01  8.30299477e-01  8.33047872e-01  8.36801441e-01
  8.37221372e-01  8.40963781e-01  8.43392449e-01  8.48302415e-01
  8.49914734e-01  8.52398490e-01  8.57391594e-01  8.59796594e-01
  8.63375495e-01  8.68143372e-01  8.72847344e-01  8.74430190e-01
  8.77952722e-01  8.84430422e-01  8.87496137e-01  8.92357965e-01
  8.94309895e-01  8.99884649e-01  9.02290448e-01  9.03837858e-01
  9.07953622e-01  9.12366205e-01  9.15558929e-01  9.17565969e-01
  9.24362396e-01  9.27676619e-01  9.30426177e-01  9.34403288e-01
  9.36096245e-01  9.40980009e-01  9.48681557e-01  9.52558907e-01
  9.60654769e-01  9.62865851e-01  9.64001140e-01  9.67866947e-01
  9.72691631e-01  9.77062799e-01  9.78567019e-01  9.80659742e-01
  9.84505384e-01  9.89348326e-01  9.89695343e-01  9.93580385e-01
  9.95034129e-01  1.00071012e+00  1.00297245e+00  1.00703883e+00
  1.00934328e+00  1.01385945e+00  1.01513911e+00  1.01645180e+00
  1.01930630e+00  1.02731644e+00  1.03307095e+00  1.03514549e+00
  1.03629900e+00  1.03870671e+00  1.04239853e+00  1.04616609e+00
  1.04875110e+00  1.05319411e+00  1.05445780e+00  1.06092866e+00
  1.06600139e+00  1.07140920e+00  1.07278560e+00  1.07781258e+00
  1.07856977e+00  1.08085356e+00  1.08301368e+00  1.08316676e+00
  1.08919619e+00  1.09410771e+00  1.09902744e+00  1.10703412e+00
  1.11037999e+00  1.11213616e+00  1.11612313e+00  1.11688603e+00
  1.12430617e+00  1.12624341e+00  1.12745893e+00  1.13286795e+00
  1.13746060e+00  1.14086272e+00  1.14262044e+00  1.14406030e+00
  1.14595257e+00  1.14947579e+00  1.15595226e+00  1.15886113e+00
  1.16111117e+00  1.16641307e+00  1.16710808e+00  1.17407091e+00
  1.17787900e+00  1.17989289e+00  1.18579977e+00  1.18699942e+00
  1.19136642e+00  1.19337125e+00  1.19467518e+00  1.19742676e+00
  1.19985384e+00  1.20432663e+00  1.20660952e+00  1.21208733e+00
  1.21880857e+00  1.22187516e+00  1.22359924e+00  1.22999058e+00
  1.23190525e+00  1.23433038e+00  1.23679945e+00  1.24271446e+00
  1.24770588e+00  1.24983437e+00  1.25340292e+00  1.25972301e+00
  1.26351615e+00  1.27065855e+00  1.27215734e+00  1.27907726e+00
  1.28245072e+00  1.28550400e+00  1.28652074e+00  1.29339171e+00
  1.29586588e+00  1.29894764e+00  1.30539743e+00  1.30738661e+00
  1.30912197e+00  1.31341588e+00  1.32051752e+00  1.32293747e+00
  1.32522039e+00  1.32968299e+00  1.33076326e+00  1.33338593e+00
  1.33744847e+00  1.34134185e+00  1.34596551e+00  1.34904634e+00
  1.35225295e+00  1.35525519e+00  1.36079143e+00  1.36475315e+00
  1.36712627e+00  1.37176878e+00  1.37294297e+00  1.37537609e+00
  1.37997278e+00  1.38218362e+00  1.38780082e+00  1.39022442e+00
  1.39348844e+00  1.39875669e+00  1.40658044e+00  1.40770802e+00
  1.40983246e+00  1.41483878e+00  1.41739296e+00  1.41896564e+00
  1.42641773e+00  1.42995064e+00  1.43399490e+00  1.43957636e+00
  1.44319942e+00  1.44588697e+00  1.45587320e+00  1.45633276e+00
  1.46149484e+00  1.46600234e+00  1.46841090e+00  1.47507420e+00
  1.47721155e+00  1.47773220e+00  1.48137477e+00  1.48430257e+00
  1.48540499e+00  1.49262164e+00  1.49862974e+00  1.50084030e+00
  1.50394678e+00  1.51333882e+00  1.52085226e+00  1.53096984e+00
  1.53598003e+00  1.54080195e+00  1.54556463e+00  1.54590023e+00
  1.55079255e+00  1.55225285e+00  1.55727369e+00  1.56062008e+00
  1.56329751e+00  1.57048607e+00  1.57583671e+00  1.58235775e+00
  1.58603080e+00  1.59170950e+00  1.59807696e+00  1.60285675e+00
  1.60719912e+00  1.61368671e+00  1.61532388e+00  1.61928530e+00
  1.61955880e+00  1.62716048e+00  1.62901798e+00  1.63249056e+00
  1.63408356e+00  1.63817028e+00  1.64004627e+00  1.64143685e+00
  1.64294740e+00  1.64469314e+00  1.64603241e+00  1.64667260e+00
  1.65070362e+00  1.65227708e+00  1.65256815e+00  1.65499126e+00
  1.65594662e+00  1.65846203e+00  1.66099071e+00  1.66233265e+00
  1.66435469e+00  1.66705327e+00  1.67108339e+00  1.67169463e+00
  1.67358843e+00  1.67515536e+00  1.67770709e+00  1.68122943e+00
  1.68433584e+00  1.68636298e+00  1.68810845e+00  1.69185428e+00
  1.69647558e+00  1.69913690e+00  1.70013662e+00  1.70364393e+00
  1.70798040e+00  1.71274281e+00  1.71416781e+00  1.71476044e+00
  1.71559087e+00  1.71676030e+00  1.71716028e+00  1.72124624e+00
  1.72418653e+00  1.72628635e+00  1.72837376e+00  1.72982029e+00
  1.73021179e+00  1.73389789e+00  1.73616701e+00  1.73854307e+00
  1.73914393e+00  1.74366059e+00  1.74798378e+00  1.75147257e+00
  1.75602873e+00  1.75701061e+00  1.75973773e+00  1.76489940e+00
  1.76654501e+00  1.76927736e+00  1.77146292e+00  1.77417255e+00
  1.77682261e+00  1.78041096e+00  1.78136551e+00  1.79001747e+00
  1.79048551e+00  1.79770634e+00  1.79897253e+00  1.80221566e+00
  1.81137219e+00  1.81178586e+00  1.81509959e+00  1.81930863e+00
  1.82732168e+00  1.82826190e+00  1.82977887e+00  1.83352974e+00
  1.84318746e+00  1.84376176e+00  1.84993586e+00  1.85479996e+00
  1.85943753e+00  1.85968654e+00  1.86889892e+00  1.87147618e+00
  1.87699680e+00  1.88178911e+00  1.88645224e+00  1.89040711e+00
  1.89604833e+00  1.89861899e+00  1.90216829e+00  1.90542805e+00
  1.91132699e+00  1.91402899e+00  1.91958287e+00  1.92533499e+00
  1.92908191e+00  1.93076631e+00  1.93607251e+00  1.94056186e+00
  1.94260116e+00  1.95054399e+00  1.95159347e+00  1.95580978e+00
  1.96623960e+00  1.96945693e+00  1.98035417e+00  1.98180833e+00
  1.98250644e+00  1.98779005e+00  1.98991925e+00  1.99158063e+00
  1.99655236e+00  1.99734039e+00  2.00643432e+00  2.00675552e+00
  2.01254945e+00  2.01604111e+00  2.02136574e+00  2.02412193e+00
  2.02672933e+00  2.03561391e+00  2.03644727e+00  2.04105117e+00
  2.04796363e+00  2.05664571e+00  2.05789260e+00  2.06583787e+00
  2.06696028e+00  2.06878392e+00  2.07318067e+00  2.07649678e+00
  2.08341893e+00  2.08689409e+00  2.08805430e+00  2.09273786e+00
  2.09972472e+00  2.10522664e+00  2.10789768e+00  2.11294066e+00
  2.11537032e+00  2.11818654e+00  2.12118809e+00  2.12390657e+00
  2.12426450e+00  2.12914889e+00  2.13219721e+00  2.13505017e+00
  2.14697602e+00  2.14928926e+00  2.14996795e+00  2.15049306e+00
  2.15447910e+00  2.15938579e+00  2.16619174e+00  2.17033894e+00
  2.17285971e+00  2.17590139e+00  2.17852619e+00  2.18276275e+00
  2.18609785e+00  2.18767334e+00  2.18907407e+00  2.19087435e+00
  2.20091851e+00  2.20546118e+00  2.20876065e+00  2.21295626e+00
  2.22178862e+00  2.22288473e+00  2.22954600e+00  2.23191005e+00
  2.23862647e+00  2.24113444e+00  2.24359719e+00  2.25443973e+00
  2.25812647e+00  2.25901916e+00  2.26115488e+00  2.26652091e+00
  2.27044264e+00  2.27293840e+00  2.27569173e+00  2.28031084e+00
  2.28282082e+00  2.28772221e+00  2.28959989e+00  2.29223724e+00
  2.29439160e+00  2.29973213e+00  2.30266623e+00  2.30948822e+00
  2.31948764e+00  2.32728439e+00  2.32995873e+00  2.33650634e+00
  2.34229598e+00  2.34428274e+00  2.35201673e+00  2.35403244e+00
  2.35631275e+00  2.36308432e+00  2.36680275e+00  2.36949481e+00
  2.37914283e+00  2.38297036e+00  2.38463892e+00  2.38853649e+00
  2.39234428e+00  2.39566885e+00  2.39640084e+00  2.40181032e+00
  2.40448604e+00  2.40573142e+00  2.41381186e+00  2.42002211e+00
  2.42034135e+00  2.42222268e+00  2.42542460e+00  2.42787867e+00
  2.43145287e+00  2.43529455e+00  2.43696671e+00  2.43978558e+00
  2.44295610e+00  2.44956083e+00  2.45984041e+00  2.46152081e+00
  2.46560789e+00  2.47013321e+00  2.47437286e+00  2.47726279e+00
  2.47905944e+00  2.48196110e+00  2.48483710e+00  2.48719980e+00
  2.49023070e+00  2.49370999e+00  2.49679859e+00  2.50094721e+00
  2.50388958e+00  2.50614266e+00  2.50671895e+00  2.51448414e+00
  2.52007906e+00  2.52200910e+00  2.52397857e+00  2.52769690e+00
  2.52873087e+00  2.53250606e+00  2.53505563e+00  2.53802692e+00
  2.54506958e+00  2.54916738e+00  2.55357431e+00  2.55667498e+00
  2.56201571e+00  2.56438726e+00  2.56780854e+00  2.57284375e+00
  2.57399384e+00  2.58521022e+00  2.58777510e+00  2.59223167e+00
  2.59913506e+00  2.60188527e+00  2.60581356e+00  2.60602484e+00
  2.61367284e+00  2.61881002e+00  2.62190580e+00  2.62327101e+00
  2.62383839e+00  2.62570332e+00  2.62694666e+00  2.62859949e+00
  2.63039959e+00  2.63342602e+00  2.63407493e+00  2.63769193e+00
  2.63898176e+00  2.64259092e+00  2.64439007e+00  2.64843975e+00
  2.65626816e+00  2.65825452e+00  2.66138170e+00  2.66244034e+00
  2.66510160e+00  2.66823451e+00  2.67085811e+00  2.67274712e+00
  2.67664278e+00  2.68135428e+00  2.68299690e+00  2.68652736e+00
  2.68753236e+00  2.69023436e+00  2.69334363e+00  2.69442941e+00
  2.70008691e+00  2.70226815e+00  2.70555480e+00  2.70668563e+00
  2.70891561e+00  2.71084367e+00  2.71426131e+00  2.71514408e+00
  2.71928950e+00  2.72270198e+00  2.72693563e+00  2.72975204e+00
  2.73352714e+00  2.73390779e+00  2.74018000e+00  2.74194952e+00
  2.74330072e+00  2.74929870e+00  2.75504581e+00  2.75808807e+00
  2.76223263e+00  2.76536125e+00  2.77221387e+00  2.77547547e+00
  2.78051744e+00  2.78260193e+00  2.78767552e+00  2.79122949e+00
  2.79673651e+00  2.80123114e+00  2.80342864e+00  2.80358244e+00
  2.80703317e+00  2.81203453e+00  2.81817838e+00  2.81935828e+00
  2.82302396e+00  2.82498522e+00  2.82902169e+00  2.83150598e+00
  2.83257530e+00  2.83929109e+00  2.84357484e+00  2.84420533e+00
  2.84851101e+00  2.85111164e+00  2.85236481e+00  2.86425018e+00
  2.86577483e+00  2.86745142e+00  2.86880946e+00  2.87011080e+00
  2.87238029e+00  2.87414210e+00  2.87902566e+00  2.88123082e+00
  2.88313024e+00  2.88661035e+00  2.89103142e+00  2.89481976e+00
  2.89637559e+00  2.89851367e+00  2.90189628e+00  2.90600446e+00
  2.91183380e+00  2.91564970e+00  2.91625956e+00  2.92263465e+00
  2.92331606e+00  2.92767732e+00  2.93386673e+00  2.93769133e+00
  2.94180780e+00  2.94683396e+00  2.94856142e+00  2.95263234e+00
  2.95328242e+00  2.95466023e+00  2.95549838e+00  2.95711783e+00
  2.96310218e+00  2.96607586e+00  2.97030182e+00  2.97670560e+00
  2.97710513e+00  2.97814087e+00  2.98391713e+00  2.98617390e+00
  2.99269802e+00  2.99549459e+00  3.00299491e+00  3.00400798e+00
  3.00630584e+00  3.00782755e+00  3.01331169e+00  3.01497652e+00
  3.01868083e+00  3.01911228e+00  3.02299639e+00  3.02425167e+00
  3.02634385e+00  3.02971272e+00  3.03676278e+00  3.04359690e+00
  3.04456737e+00  3.04755988e+00  3.04907436e+00  3.05230427e+00
  3.05933911e+00  3.06512123e+00  3.07108225e+00  3.07617598e+00
  3.08296966e+00  3.08703885e+00  3.09018288e+00  3.09116023e+00
  3.09790049e+00  3.09896790e+00  3.10310592e+00  3.10466020e+00
  3.10804148e+00  3.11338379e+00  3.11683293e+00  3.12217760e+00
  3.12654072e+00  3.13224026e+00  3.13396933e+00  3.13720847e+00
  3.14037647e+00  3.14568997e+00  3.14766844e+00  3.14907348e+00
  3.15629996e+00  3.16077731e+00  3.16362850e+00  3.16597087e+00
  3.16960422e+00  3.17353389e+00  3.17855254e+00  3.17888481e+00
  3.18057477e+00  3.18414742e+00  3.18621248e+00  3.19116989e+00
  3.19265917e+00  3.19594216e+00  3.19774858e+00  3.20377306e+00
  3.20587191e+00  3.20881972e+00  3.21382182e+00  3.21426377e+00
  3.21792501e+00  3.22220159e+00  3.22496928e+00  3.22830269e+00
  3.22927210e+00  3.23253477e+00  3.23499282e+00  3.23722108e+00
  3.24184658e+00  3.24231024e+00  3.24574112e+00  3.24939245e+00
  3.25077161e+00  3.25312423e+00  3.25720095e+00  3.25802042e+00
  3.25948570e+00  3.26478862e+00  3.26700477e+00  3.26825440e+00
  3.27140878e+00  3.27289598e+00  3.27432758e+00  3.27568147e+00
  3.27876160e+00  3.28178920e+00  3.28752534e+00  3.28946823e+00
  3.29011406e+00  3.29275398e+00  3.29536783e+00  3.29943378e+00
  3.30524152e+00  3.30691003e+00  3.31001210e+00  3.31277211e+00
  3.31665218e+00  3.31862156e+00  3.32054658e+00  3.32467118e+00
  3.32649016e+00  3.33051635e+00  3.33265950e+00  3.33741055e+00
  3.34100671e+00  3.34241996e+00  3.34495173e+00  3.34954943e+00
  3.35085873e+00  3.35436680e+00  3.35792840e+00  3.36128870e+00
  3.36424762e+00  3.36548981e+00  3.36633631e+00  3.36834160e+00
  3.37094972e+00  3.37628747e+00  3.38041578e+00  3.38281451e+00
  3.38529412e+00  3.38882730e+00  3.38947212e+00  3.39366625e+00
  3.39542271e+00  3.39604260e+00  3.40137674e+00  3.40611352e+00
  3.40763268e+00  3.41150861e+00  3.41385763e+00  3.41902003e+00
  3.42086532e+00  3.42486736e+00  3.42725168e+00  3.42993057e+00
  3.43423077e+00  3.43541802e+00  3.43678200e+00  3.43838150e+00
  3.44310490e+00  3.44660791e+00  3.44762131e+00  3.44864349e+00
  3.45313807e+00  3.45614098e+00  3.45980397e+00  3.46123977e+00
  3.46490997e+00  3.46657223e+00  3.46696042e+00  3.46928614e+00
  3.47230273e+00  3.47637785e+00  3.47762337e+00  3.48388179e+00
  3.48821132e+00  3.49009182e+00  3.49253632e+00  3.49494827e+00
  3.49812246e+00  3.50045373e+00  3.50176548e+00  3.50277196e+00
  3.50534365e+00  3.51251599e+00  3.51463895e+00  3.51619473e+00
  3.52406944e+00  3.52480068e+00  3.53064042e+00  3.53514939e+00
  3.53774320e+00  3.53895962e+00  3.54116418e+00  3.54452759e+00
  3.54916712e+00  3.55178912e+00  3.55682606e+00  3.55926526e+00
  3.56171174e+00  3.56863943e+00  3.57346814e+00  3.57826766e+00
  3.58069242e+00  3.58660126e+00  3.58794065e+00  3.58980164e+00
  3.59573972e+00  3.60178014e+00  3.60398329e+00  3.60637957e+00
  3.60840929e+00  3.61248589e+00  3.61503020e+00  3.61760917e+00
  3.62177438e+00  3.62515056e+00  3.62606664e+00  3.62837473e+00
  3.62960677e+00  3.63649783e+00  3.64178940e+00  3.64484961e+00
  3.64639875e+00  3.65166882e+00  3.65458676e+00  3.65708126e+00
  3.66168294e+00  3.66875200e+00  3.67072726e+00  3.67492045e+00
  3.67616347e+00  3.67855414e+00  3.68492295e+00  3.68781957e+00
  3.69085376e+00  3.69156877e+00  3.69563980e+00  3.70242469e+00
  3.70655770e+00  3.70776125e+00  3.71206783e+00  3.71685575e+00
  3.71895537e+00  3.72242679e+00  3.72551420e+00  3.73128538e+00
  3.73158272e+00  3.73869262e+00  3.74421079e+00  3.74684507e+00
  3.74821459e+00  3.75613185e+00  3.76269541e+00  3.76328977e+00
  3.77032702e+00  3.77490913e+00  3.77645900e+00  3.78113197e+00
  3.79239876e+00  3.79929540e+00  3.80113197e+00  3.80948879e+00
  3.81278835e+00  3.81446468e+00  3.81566472e+00  3.81859989e+00
  3.82454524e+00  3.82726674e+00  3.83465015e+00  3.84488929e+00
  3.84656049e+00  3.85306187e+00  3.85461930e+00  3.86596941e+00
  3.86807325e+00  3.87051966e+00  3.87345204e+00  3.87593515e+00
  3.88291952e+00  3.88425489e+00  3.89162644e+00  3.90228369e+00
  3.90262749e+00  3.90945512e+00  3.92021076e+00  3.92496803e+00
  3.92787261e+00  3.93006480e+00  3.93212468e+00  3.94556362e+00
  3.94861809e+00  3.95002217e+00  3.95742840e+00  3.96316363e+00
  3.97285639e+00  3.98114497e+00  3.98486124e+00  3.98842610e+00
  3.98982926e+00  3.99702458e+00  3.99847419e+00  4.01025819e+00
  4.01557140e+00  4.01850927e+00  4.02288091e+00  4.03199182e+00
  4.03517250e+00  4.04171764e+00  4.04423086e+00  4.04957411e+00
  4.05667656e+00  4.05835026e+00  4.06473576e+00  4.07014938e+00
  4.07023279e+00  4.07436080e+00  4.08034360e+00  4.08157465e+00
  4.09163041e+00  4.09740998e+00  4.10043446e+00  4.10554671e+00
  4.10829750e+00  4.11374750e+00  4.11918498e+00  4.12556227e+00
  4.12837311e+00  4.14243230e+00  4.14285626e+00  4.14508652e+00
  4.15435347e+00  4.15698574e+00  4.16351522e+00  4.17778587e+00
  4.18154783e+00  4.18686288e+00  4.18945679e+00  4.19706241e+00
  4.19900372e+00  4.21117959e+00  4.21372296e+00  4.22896245e+00
  4.23186972e+00  4.23602859e+00  4.24089947e+00  4.24272519e+00
  4.24546110e+00  4.25575646e+00  4.26637009e+00  4.27108865e+00
  4.28016628e+00  4.28482895e+00  4.30154425e+00  4.30734062e+00
  4.31517139e+00  4.31827556e+00  4.32313530e+00  4.33359576e+00
  4.33842657e+00  4.34313386e+00  4.34495731e+00  4.34736031e+00
  4.35476376e+00  4.35660216e+00  4.35756395e+00  4.36389677e+00
  4.37391671e+00  4.37794944e+00  4.37972738e+00  4.38779318e+00
  4.39342000e+00  4.39710154e+00  4.39956436e+00  4.40345396e+00
  4.40710734e+00  4.41223233e+00  4.41602044e+00  4.42232547e+00
  4.42659762e+00  4.43560266e+00  4.44027335e+00  4.44411706e+00
  4.44689066e+00  4.45840368e+00  4.46892173e+00  4.47223033e+00
  4.47688349e+00  4.48397012e+00  4.49028942e+00  4.49327880e+00
  4.49971864e+00  4.50814753e+00  4.51016681e+00  4.51234021e+00
  4.51564749e+00  4.51808467e+00  4.52348589e+00  4.52757380e+00
  4.53976080e+00  4.54226777e+00  4.54727843e+00  4.55454992e+00
  4.55872942e+00  4.56151970e+00  4.57157829e+00  4.57504973e+00
  4.57687595e+00  4.58033419e+00  4.58577511e+00  4.58705070e+00
  4.59181693e+00  4.60024628e+00  4.61623549e+00  4.61729570e+00
  4.62586213e+00  4.63473701e+00  4.63567186e+00  4.64005446e+00
  4.64720609e+00  4.65920562e+00  4.67248787e+00  4.68762553e+00
  4.68913531e+00  4.69562110e+00  4.70422236e+00  4.71326940e+00
  4.71811365e+00  4.72500692e+00  4.73574451e+00  4.73770224e+00
  4.74182607e+00  4.75194107e+00  4.75655579e+00  4.75952700e+00
  4.76705573e+00  4.78108428e+00  4.79535448e+00  4.79612655e+00
  4.79805603e+00  4.80479467e+00  4.81383114e+00  4.83204099e+00
  4.83896826e+00  4.84007276e+00  4.85203265e+00  4.87467789e+00
  4.87969139e+00  4.88843465e+00  4.90181678e+00  4.91240852e+00
  4.92003015e+00  4.93453979e+00  4.94555474e+00  4.95034793e+00
  4.96467121e+00  4.97237864e+00  4.98726656e+00  4.99578113e+00
  5.00264308e+00  5.00984263e+00  5.01682071e+00  5.02191595e+00
  5.03297978e+00  5.05390728e+00  5.06221209e+00  5.06874350e+00
  5.07704867e+00  5.09570653e+00  5.10267770e+00  5.12980146e+00
  5.13289824e+00  5.14758504e+00  5.16512539e+00  5.18202416e+00
  5.20154257e+00  5.20559531e+00  5.21526213e+00  5.22961893e+00
  5.23693223e+00  5.23889908e+00  5.26975805e+00  5.27412046e+00
  5.28212670e+00  5.28893461e+00  5.30648770e+00  5.32140198e+00
  5.32646070e+00  5.34173932e+00  5.37073104e+00  5.37661629e+00
  5.40598371e+00  5.41831803e+00  5.42117533e+00  5.44792712e+00
  5.45014251e+00  5.48034029e+00  5.48704377e+00  5.52988128e+00
  5.53355144e+00  5.57690399e+00  5.61453779e+00  5.62340781e+00
  5.65970492e+00  5.67984263e+00  5.72327594e+00  5.74218736e+00
  5.75767602e+00  5.87245576e+00  5.88155765e+00  6.02599383e+00
  6.38419472e+00  6.61576383e+00  6.86189759e+00  6.95851597e+00
  7.12398579e+00  7.28190521e+00  2.23452700e+01  2.23966360e+01
  2.24046477e+01  2.24209404e+01  2.24417658e+01  2.24490488e+01
  2.24568611e+01  2.24655426e+01  2.24692610e+01  2.24826088e+01
  2.24961681e+01  2.25257655e+01  2.25472651e+01  2.25677179e+01
  2.25772763e+01  2.25905413e+01  2.26029704e+01  2.26162033e+01
  2.26368649e+01  2.26532657e+01  2.26634140e+01  2.26655508e+01
  2.26714545e+01  2.27012635e+01  2.27169793e+01  2.27493151e+01
  2.27595387e+01  2.27695745e+01  2.27967044e+01  2.28081872e+01
  2.28332488e+01  2.28549033e+01  2.29001903e+01  2.29111495e+01
  2.30501326e+01  2.30827904e+01  2.31239731e+01  2.31585677e+01
  2.31758632e+01  2.33100210e+01  4.41180244e+01]
nelec by numeric integration = 306.00013739945115
    CPU time for vxc    444.66 sec, wall time     24.29 sec
    CPU time for df vj and vk   2852.10 sec, wall time    161.81 sec
    CPU time for df vj and vk   2368.72 sec, wall time    120.93 sec
E1 = -9514.108550237948  Ecoul = 4451.179050781326  Exc = -246.86700618261602
cycle= 2 E= -1634.42587175346  delta_E= 6.37e-12  |g|= 3.09e-06  |ddm|= 8.49e-06
    CPU time for cycle= 2   5680.70 sec, wall time    309.12 sec
  HOMO = -0.230709351493925  LUMO = -0.0377018814219884
  mo_energy =
[-1.91917503e+01 -1.03188922e+01 -1.02765008e+01 -1.02762830e+01
 -1.02758980e+01 -1.02734244e+01 -1.02713346e+01 -1.02711730e+01
 -1.02667089e+01 -1.02663594e+01 -1.02655189e+01 -1.02645251e+01
 -1.02636906e+01 -1.02634529e+01 -1.02633350e+01 -1.02629500e+01
 -1.02624445e+01 -1.02614399e+01 -1.02602248e+01 -1.02595250e+01
 -1.02588029e+01 -1.02577456e+01 -1.02566870e+01 -1.02566218e+01
 -1.02565348e+01 -1.02565264e+01 -1.02563778e+01 -1.02562103e+01
 -1.02550963e+01 -1.02543700e+01 -1.02538746e+01 -1.02534144e+01
 -1.02527300e+01 -1.02521677e+01 -1.02510198e+01 -1.02507113e+01
 -1.02496799e+01 -1.02479624e+01 -1.02461266e+01 -1.02448318e+01
 -1.02408325e+01 -1.14616528e+00 -9.83888708e-01 -9.72180673e-01
 -9.68183589e-01 -9.61363906e-01 -9.54231920e-01 -9.49104078e-01
 -9.29972968e-01 -9.21856696e-01 -9.16391922e-01 -9.07315191e-01
 -8.98711295e-01 -8.83670847e-01 -8.75388117e-01 -8.59977520e-01
 -8.48790522e-01 -8.34106522e-01 -8.20812902e-01 -8.17180871e-01
 -8.15897676e-01 -8.13864334e-01 -8.07428078e-01 -8.05958997e-01
 -8.02294654e-01 -7.96720848e-01 -7.83988768e-01 -7.58231448e-01
 -7.42499509e-01 -7.25456326e-01 -7.14451899e-01 -6.93129025e-01
 -6.82983437e-01 -6.82394289e-01 -6.78192798e-01 -6.64844256e-01
 -6.53925961e-01 -6.48584654e-01 -6.46109809e-01 -6.36105741e-01
 -6.25326770e-01 -6.11884111e-01 -6.07867528e-01 -6.03717055e-01
 -5.95387731e-01 -5.87981429e-01 -5.82657334e-01 -5.79945074e-01
 -5.73043652e-01 -5.71691259e-01 -5.63252387e-01 -5.57665286e-01
 -5.56033482e-01 -5.50628167e-01 -5.48384564e-01 -5.39528353e-01
 -5.35346753e-01 -5.31553467e-01 -5.31176016e-01 -5.30637553e-01
 -5.29227589e-01 -5.28322612e-01 -5.26883925e-01 -5.26455666e-01
 -5.24315651e-01 -5.21122424e-01 -5.18374331e-01 -5.05658373e-01
 -5.02824770e-01 -5.02284413e-01 -5.00159037e-01 -4.96987958e-01
 -4.92767370e-01 -4.91033670e-01 -4.84621334e-01 -4.83516801e-01
 -4.82569196e-01 -4.77733981e-01 -4.76135432e-01 -4.73114168e-01
 -4.69990675e-01 -4.69702403e-01 -4.66222715e-01 -4.64623688e-01
 -4.61912650e-01 -4.58564661e-01 -4.53520839e-01 -4.52448193e-01
 -4.51009377e-01 -4.50140944e-01 -4.47708649e-01 -4.45116703e-01
 -4.42563717e-01 -4.41841612e-01 -4.40627442e-01 -4.38156018e-01
 -4.37791462e-01 -4.33627789e-01 -4.31160446e-01 -4.22542361e-01
 -4.20376215e-01 -4.16973021e-01 -4.10529946e-01 -4.08220610e-01
 -3.97267164e-01 -3.90211798e-01 -3.79136345e-01 -3.75895894e-01
 -3.49688062e-01 -3.26256752e-01 -2.98423773e-01 -2.67340797e-01
 -2.30709351e-01 -3.77018814e-02  7.57175546e-03  4.65529133e-02
  8.07448736e-02  9.75689129e-02  1.04059700e-01  1.08668398e-01
  1.12146940e-01  1.15772777e-01  1.21110778e-01  1.24086840e-01
  1.26959253e-01  1.28726778e-01  1.31344489e-01  1.35614896e-01
  1.38068254e-01  1.39794226e-01  1.42909433e-01  1.43790133e-01
  1.45718062e-01  1.47226313e-01  1.50794753e-01  1.52822814e-01
  1.56049230e-01  1.56625434e-01  1.58152035e-01  1.58737262e-01
  1.64363778e-01  1.65980078e-01  1.67041646e-01  1.69324731e-01
  1.70032914e-01  1.72975290e-01  1.75099459e-01  1.79050513e-01
  1.80491972e-01  1.82851253e-01  1.84466258e-01  1.88055661e-01
  1.92775110e-01  1.96319358e-01  1.97904160e-01  1.99633097e-01
  1.99703545e-01  2.02949939e-01  2.05254834e-01  2.06313319e-01
  2.07686934e-01  2.10472601e-01  2.11648747e-01  2.14789393e-01
  2.16112197e-01  2.16903335e-01  2.18104112e-01  2.21074372e-01
  2.23901553e-01  2.25075726e-01  2.26423970e-01  2.27868517e-01
  2.30374574e-01  2.32697286e-01  2.33794121e-01  2.35985121e-01
  2.39002905e-01  2.39273072e-01  2.40332132e-01  2.44572404e-01
  2.46174206e-01  2.49036380e-01  2.52341664e-01  2.53568257e-01
  2.54948080e-01  2.56030961e-01  2.57616522e-01  2.59388630e-01
  2.63928735e-01  2.65264240e-01  2.67126178e-01  2.67920505e-01
  2.68814422e-01  2.69739658e-01  2.72095893e-01  2.74869206e-01
  2.77693125e-01  2.79224766e-01  2.82975519e-01  2.85820172e-01
  2.89617844e-01  2.90593697e-01  2.90753206e-01  2.94866599e-01
  2.96088470e-01  2.97783615e-01  2.98306952e-01  3.02357597e-01
  3.03205860e-01  3.05643085e-01  3.10294640e-01  3.15187660e-01
  3.17914222e-01  3.20184952e-01  3.20945743e-01  3.24168061e-01
  3.24705223e-01  3.25102070e-01  3.27161426e-01  3.33061545e-01
  3.36940329e-01  3.39986433e-01  3.41394338e-01  3.42433305e-01
  3.45610744e-01  3.47091457e-01  3.49586935e-01  3.52014932e-01
  3.54646575e-01  3.56692559e-01  3.59237925e-01  3.61917454e-01
  3.63847795e-01  3.65618199e-01  3.66709923e-01  3.70008349e-01
  3.72551842e-01  3.74381256e-01  3.75872618e-01  3.79413770e-01
  3.81430996e-01  3.84431449e-01  3.90296635e-01  3.91663018e-01
  3.93187214e-01  3.94649379e-01  3.97963856e-01  4.02793007e-01
  4.04196069e-01  4.08775130e-01  4.09007843e-01  4.12441067e-01
  4.14745415e-01  4.15897656e-01  4.16630042e-01  4.20879881e-01
  4.22062803e-01  4.22904544e-01  4.24945407e-01  4.26258102e-01
  4.29497620e-01  4.30573769e-01  4.32317942e-01  4.33963434e-01
  4.35576194e-01  4.39131743e-01  4.41797646e-01  4.45284486e-01
  4.49261052e-01  4.50104282e-01  4.52176818e-01  4.54147923e-01
  4.54664276e-01  4.56986439e-01  4.59146558e-01  4.60157705e-01
  4.62824186e-01  4.64687519e-01  4.69070957e-01  4.69508966e-01
  4.72502655e-01  4.76157371e-01  4.78245997e-01  4.78859334e-01
  4.80546112e-01  4.83368324e-01  4.84591787e-01  4.86505393e-01
  4.88281047e-01  4.90878983e-01  4.93175223e-01  4.93730790e-01
  4.96280092e-01  4.98241733e-01  4.99595107e-01  5.01247010e-01
  5.03612860e-01  5.04568633e-01  5.07696327e-01  5.08906202e-01
  5.13393406e-01  5.14221108e-01  5.15119015e-01  5.15435323e-01
  5.17533749e-01  5.18876844e-01  5.21323499e-01  5.23618975e-01
  5.24446409e-01  5.24961970e-01  5.27168835e-01  5.29144763e-01
  5.29950765e-01  5.33018121e-01  5.35117287e-01  5.35228156e-01
  5.36783383e-01  5.37535784e-01  5.39708313e-01  5.40945306e-01
  5.41457775e-01  5.41632345e-01  5.47250361e-01  5.50437941e-01
  5.50893783e-01  5.53508952e-01  5.54244147e-01  5.54756817e-01
  5.58631426e-01  5.61755874e-01  5.63405197e-01  5.64467707e-01
  5.67277094e-01  5.68842562e-01  5.69919909e-01  5.71393139e-01
  5.72240562e-01  5.73762929e-01  5.76042871e-01  5.76680524e-01
  5.79300805e-01  5.81753356e-01  5.82476346e-01  5.83520186e-01
[...]
  3.36424776e+00  3.36548982e+00  3.36633632e+00  3.36834163e+00
  3.37094980e+00  3.37628754e+00  3.38041578e+00  3.38281451e+00
  3.38529416e+00  3.38882737e+00  3.38947225e+00  3.39366629e+00
  3.39542270e+00  3.39604262e+00  3.40137684e+00  3.40611357e+00
  3.40763270e+00  3.41150865e+00  3.41385765e+00  3.41902009e+00
  3.42086537e+00  3.42486739e+00  3.42725166e+00  3.42993062e+00
  3.43423080e+00  3.43541796e+00  3.43678203e+00  3.43838158e+00
  3.44310486e+00  3.44660787e+00  3.44762134e+00  3.44864349e+00
  3.45313805e+00  3.45614100e+00  3.45980402e+00  3.46123976e+00
  3.46491003e+00  3.46657228e+00  3.46696046e+00  3.46928623e+00
  3.47230282e+00  3.47637787e+00  3.47762340e+00  3.48388183e+00
  3.48821142e+00  3.49009188e+00  3.49253635e+00  3.49494833e+00
  3.49812253e+00  3.50045379e+00  3.50176553e+00  3.50277198e+00
  3.50534367e+00  3.51251602e+00  3.51463899e+00  3.51619476e+00
  3.52406946e+00  3.52480071e+00  3.53064045e+00  3.53514951e+00
  3.53774322e+00  3.53895964e+00  3.54116421e+00  3.54452764e+00
  3.54916729e+00  3.55178912e+00  3.55682608e+00  3.55926532e+00
  3.56171173e+00  3.56863951e+00  3.57346814e+00  3.57826779e+00
  3.58069255e+00  3.58660131e+00  3.58794064e+00  3.58980167e+00
  3.59573978e+00  3.60178016e+00  3.60398330e+00  3.60637957e+00
  3.60840935e+00  3.61248594e+00  3.61503021e+00  3.61760921e+00
  3.62177444e+00  3.62515058e+00  3.62606664e+00  3.62837479e+00
  3.62960683e+00  3.63649797e+00  3.64178942e+00  3.64484969e+00
  3.64639882e+00  3.65166886e+00  3.65458673e+00  3.65708135e+00
  3.66168294e+00  3.66875201e+00  3.67072731e+00  3.67492045e+00
  3.67616345e+00  3.67855415e+00  3.68492294e+00  3.68781963e+00
  3.69085378e+00  3.69156885e+00  3.69563978e+00  3.70242468e+00
  3.70655774e+00  3.70776134e+00  3.71206788e+00  3.71685585e+00
  3.71895541e+00  3.72242681e+00  3.72551418e+00  3.73128536e+00
  3.73158274e+00  3.73869273e+00  3.74421082e+00  3.74684508e+00
  3.74821462e+00  3.75613190e+00  3.76269542e+00  3.76328978e+00
  3.77032702e+00  3.77490913e+00  3.77645906e+00  3.78113198e+00
  3.79239883e+00  3.79929544e+00  3.80113204e+00  3.80948881e+00
  3.81278848e+00  3.81446474e+00  3.81566478e+00  3.81859992e+00
  3.82454530e+00  3.82726683e+00  3.83465016e+00  3.84488926e+00
  3.84656052e+00  3.85306191e+00  3.85461933e+00  3.86596943e+00
  3.86807328e+00  3.87051974e+00  3.87345205e+00  3.87593523e+00
  3.88291962e+00  3.88425489e+00  3.89162646e+00  3.90228372e+00
  3.90262748e+00  3.90945518e+00  3.92021088e+00  3.92496804e+00
  3.92787266e+00  3.93006481e+00  3.93212470e+00  3.94556367e+00
  3.94861816e+00  3.95002229e+00  3.95742839e+00  3.96316361e+00
  3.97285640e+00  3.98114507e+00  3.98486130e+00  3.98842622e+00
  3.98982932e+00  3.99702458e+00  3.99847435e+00  4.01025823e+00
  4.01557150e+00  4.01850946e+00  4.02288097e+00  4.03199179e+00
  4.03517264e+00  4.04171764e+00  4.04423084e+00  4.04957417e+00
  4.05667658e+00  4.05835030e+00  4.06473587e+00  4.07014943e+00
  4.07023284e+00  4.07436080e+00  4.08034364e+00  4.08157464e+00
  4.09163049e+00  4.09741001e+00  4.10043445e+00  4.10554677e+00
  4.10829761e+00  4.11374756e+00  4.11918497e+00  4.12556230e+00
  4.12837316e+00  4.14243229e+00  4.14285634e+00  4.14508654e+00
  4.15435345e+00  4.15698598e+00  4.16351523e+00  4.17778585e+00
  4.18154800e+00  4.18686295e+00  4.18945680e+00  4.19706244e+00
  4.19900376e+00  4.21117970e+00  4.21372299e+00  4.22896250e+00
  4.23186977e+00  4.23602864e+00  4.24089943e+00  4.24272524e+00
  4.24546115e+00  4.25575636e+00  4.26637015e+00  4.27108874e+00
  4.28016630e+00  4.28482892e+00  4.30154423e+00  4.30734061e+00
  4.31517144e+00  4.31827562e+00  4.32313536e+00  4.33359582e+00
  4.33842658e+00  4.34313393e+00  4.34495734e+00  4.34736032e+00
  4.35476373e+00  4.35660219e+00  4.35756401e+00  4.36389678e+00
  4.37391670e+00  4.37794949e+00  4.37972738e+00  4.38779325e+00
  4.39342005e+00  4.39710159e+00  4.39956441e+00  4.40345401e+00
  4.40710743e+00  4.41223236e+00  4.41602054e+00  4.42232559e+00
  4.42659763e+00  4.43560267e+00  4.44027352e+00  4.44411705e+00
  4.44689063e+00  4.45840378e+00  4.46892170e+00  4.47223034e+00
  4.47688344e+00  4.48397018e+00  4.49028941e+00  4.49327881e+00
  4.49971867e+00  4.50814756e+00  4.51016682e+00  4.51234021e+00
  4.51564761e+00  4.51808479e+00  4.52348591e+00  4.52757381e+00
  4.53976080e+00  4.54226780e+00  4.54727843e+00  4.55454992e+00
  4.55872954e+00  4.56151967e+00  4.57157845e+00  4.57504977e+00
  4.57687600e+00  4.58033436e+00  4.58577511e+00  4.58705074e+00
  4.59181696e+00  4.60024631e+00  4.61623552e+00  4.61729574e+00
  4.62586217e+00  4.63473719e+00  4.63567192e+00  4.64005451e+00
  4.64720612e+00  4.65920559e+00  4.67248794e+00  4.68762556e+00
  4.68913534e+00  4.69562107e+00  4.70422236e+00  4.71326941e+00
  4.71811373e+00  4.72500701e+00  4.73574457e+00  4.73770228e+00
  4.74182611e+00  4.75194123e+00  4.75655583e+00  4.75952710e+00
  4.76705582e+00  4.78108434e+00  4.79535450e+00  4.79612672e+00
  4.79805612e+00  4.80479475e+00  4.81383111e+00  4.83204105e+00
  4.83896829e+00  4.84007275e+00  4.85203265e+00  4.87467799e+00
  4.87969145e+00  4.88843469e+00  4.90181678e+00  4.91240852e+00
  4.92003016e+00  4.93453986e+00  4.94555478e+00  4.95034800e+00
  4.96467127e+00  4.97237877e+00  4.98726678e+00  4.99578131e+00
  5.00264311e+00  5.00984261e+00  5.01682070e+00  5.02191592e+00
  5.03297987e+00  5.05390735e+00  5.06221217e+00  5.06874352e+00
  5.07704869e+00  5.09570657e+00  5.10267765e+00  5.12980164e+00
  5.13289828e+00  5.14758501e+00  5.16512543e+00  5.18202425e+00
  5.20154260e+00  5.20559531e+00  5.21526221e+00  5.22961905e+00
  5.23693235e+00  5.23889908e+00  5.26975805e+00  5.27412049e+00
  5.28212672e+00  5.28893476e+00  5.30648771e+00  5.32140205e+00
  5.32646068e+00  5.34173935e+00  5.37073110e+00  5.37661639e+00
  5.40598374e+00  5.41831825e+00  5.42117591e+00  5.44792706e+00
  5.45014247e+00  5.48034042e+00  5.48704411e+00  5.52988142e+00
  5.53355199e+00  5.57690409e+00  5.61453851e+00  5.62340793e+00
  5.65970497e+00  5.67984267e+00  5.72327600e+00  5.74218738e+00
  5.75767598e+00  5.87245642e+00  5.88155830e+00  6.02599445e+00
  6.38419558e+00  6.61576492e+00  6.86189861e+00  6.95851699e+00
  7.12398680e+00  7.28190612e+00  2.23452703e+01  2.23966358e+01
  2.24046476e+01  2.24209404e+01  2.24417660e+01  2.24490486e+01
  2.24568611e+01  2.24655426e+01  2.24692608e+01  2.24826090e+01
  2.24961682e+01  2.25257656e+01  2.25472653e+01  2.25677179e+01
  2.25772764e+01  2.25905414e+01  2.26029709e+01  2.26162036e+01
  2.26368649e+01  2.26532655e+01  2.26634138e+01  2.26655504e+01
  2.26714542e+01  2.27012637e+01  2.27169794e+01  2.27493150e+01
  2.27595387e+01  2.27695746e+01  2.27967045e+01  2.28081872e+01
  2.28332490e+01  2.28549034e+01  2.29001904e+01  2.29111497e+01
  2.30501328e+01  2.30827906e+01  2.31239732e+01  2.31585677e+01
  2.31758632e+01  2.33100212e+01  4.41180264e+01]
nelec by numeric integration = 306.0001373994687
    CPU time for vxc    442.83 sec, wall time     24.21 sec
    CPU time for df vj and vk   2851.95 sec, wall time    162.03 sec
    CPU time for df vj and vk   2366.24 sec, wall time    120.53 sec
E1 = -9514.108529883973  Ecoul = 4451.179028918595  Exc = -246.8670046738585
Extra cycle  E= -1634.42587175346  delta_E= 9.09e-13  |g|= 3.62e-06  |ddm|= 5.34e-06
    CPU time for scf_cycle  26119.41 sec, wall time   1568.86 sec
    CPU time for SCF  26119.41 sec, wall time   1568.86 sec
converged SCF energy = -1634.42587175346
SCF Done after 1569.00 seconds
after SCF memory used: 75.47 GB
Converting <class 'pyscf.df.df_jk.density_fit.<locals>.DFHF'> to RHF
Converting <class 'pyscf.df.df_jk.density_fit.<locals>.DFHF'> to RHF
hdiag shape (224298,)
n_occ =  153
n_vir =  1466
max_vir =  438
A_size =  224298
A_reduced_size = 67014
a_x = 0.56
beta = 8.0
alpha = 4.58
Q-Gamma tensors building time = 2.43
after Q matrix memory used: 76.00 GB
TDDFT
|-------- In-house Developed TDDFT Starts ---------|
Residual conv = 1e-05

Number of excited states = 5
Initial guess:   sTDDFT
Preconditioner:  sTDDFT
A matrix size =  224298
setting initial guess
sTDDFT Convergence tol = 1.00e-03
sTDDFT diagonalization Converged
after  7 iterations; 42.2455 seconds
final subspace 68
max_norm =  9.96e-04
MVcost     24.6964s 58.46%
GScost     13.6603s 32.34%
subgencost 2.8375s 6.72%
subcost    0.0419s 0.10%
sTDDFT excitation energy:
[2.13221082 3.47727164 3.97580295 4.33001457 4.75797877 4.96705268
 5.36851092 5.37054086 5.47868452 5.52398727]
new_m = 10
initial guess done

iteration 0
beginning of step 0 memory used: 77.09 GB
    CPU time for df vj and vk  29162.73 sec, wall time   1597.18 sec
    CPU time for df vj and vk  23970.31 sec, wall time   1225.96 sec
subspace size: 10
Maximum residual norm:  1.63e-01
unconverged states [0, 1, 2, 3, 4]
sTDDFT_preconditioner conv 0.01
sTDDFT preconditioning Done
after 8 steps; 17.4441 s
final subspace 33
max_norm =  6.92e-03
initial_cost 0.2385s  1.37%
MVcost     12.7953s  73.35%
GScost     2.5417s  14.57%
subgencost 1.4641s  8.39%
subcost    0.0123s  0.07%
m & new_m 10 15

iteration 1
beginning of step 1 memory used: 77.20 GB
    CPU time for df vj and vk  14572.22 sec, wall time    797.91 sec
    CPU time for df vj and vk  12007.62 sec, wall time    613.26 sec
subspace size: 15
Maximum residual norm:  4.26e-02
unconverged states [0, 1, 2, 3, 4]
sTDDFT_preconditioner conv 0.01
sTDDFT preconditioning Done
after 11 steps; 19.3366 s
final subspace 34
max_norm =  6.27e-03
initial_cost 0.2322s  1.20%
MVcost     13.5691s  70.17%
GScost     2.6898s  13.91%
subgencost 2.2802s  11.79%
subcost    0.0190s  0.10%
m & new_m 15 20

iteration 2
beginning of step 2 memory used: 77.22 GB
    CPU time for df vj and vk  14568.42 sec, wall time    797.29 sec
    CPU time for df vj and vk  11996.40 sec, wall time    613.00 sec
subspace size: 20
Maximum residual norm:  1.91e-02
unconverged states [0, 1, 2, 3, 4]
sTDDFT_preconditioner conv 0.01
sTDDFT preconditioning Done
after 8 steps; 16.2118 s
final subspace 30
max_norm =  9.45e-03
initial_cost 0.2504s  1.54%
MVcost     12.0722s  74.47%
GScost     2.1289s  13.13%
subgencost 1.3776s  8.50%
subcost    0.0099s  0.06%
m & new_m 20 25

iteration 3
beginning of step 3 memory used: 77.22 GB
    CPU time for df vj and vk  14574.34 sec, wall time    797.74 sec
    CPU time for df vj and vk  11995.85 sec, wall time    612.98 sec
subspace size: 25
Maximum residual norm:  4.51e-03
unconverged states [0, 1, 2, 3, 4]
sTDDFT_preconditioner conv 0.01
sTDDFT preconditioning Done
after 10 steps; 18.7133 s
final subspace 33
max_norm =  7.95e-03
initial_cost 0.2363s  1.26%
MVcost     13.3065s  71.11%
GScost     2.5972s  13.88%
subgencost 2.0690s  11.06%
subcost    0.0169s  0.09%
m & new_m 25 30

iteration 4
beginning of step 4 memory used: 77.16 GB
    CPU time for df vj and vk  14582.45 sec, wall time    799.06 sec
    CPU time for df vj and vk  11969.18 sec, wall time    611.27 sec
subspace size: 30
Maximum residual norm:  1.65e-03
unconverged states [0, 1, 2, 3, 4]
sTDDFT_preconditioner conv 0.01
sTDDFT preconditioning Done
after 9 steps; 16.8337 s
final subspace 31
max_norm =  7.24e-03
initial_cost 0.2330s  1.38%
MVcost     12.3097s  73.13%
GScost     2.2040s  13.09%
subgencost 1.6508s  9.81%
subcost    0.0211s  0.13%
m & new_m 30 35

iteration 5
beginning of step 5 memory used: 77.22 GB
    CPU time for df vj and vk  14558.51 sec, wall time    796.91 sec
    CPU time for df vj and vk  11989.37 sec, wall time    613.32 sec
subspace size: 35
Maximum residual norm:  4.61e-04
unconverged states [0, 1, 2, 3, 4]
sTDDFT_preconditioner conv 0.01
sTDDFT preconditioning Done
after 11 steps; 18.6308 s
final subspace 32
max_norm =  8.18e-03
initial_cost 0.2470s  1.33%
MVcost     13.0590s  70.09%
GScost     2.4618s  13.21%
subgencost 2.2754s  12.21%
subcost    0.0175s  0.09%
m & new_m 35 40

iteration 6
beginning of step 6 memory used: 77.15 GB
    CPU time for df vj and vk  14563.82 sec, wall time    798.41 sec
    CPU time for df vj and vk  11998.11 sec, wall time    612.70 sec
subspace size: 40
Maximum residual norm:  1.65e-04
unconverged states [0, 1, 2, 3, 4]
sTDDFT_preconditioner conv 0.01
sTDDFT preconditioning Done
after 8 steps; 16.8468 s
final subspace 31
max_norm =  7.25e-03
initial_cost 0.2502s  1.49%
MVcost     12.3213s  73.14%
GScost     2.3663s  14.05%
subgencost 1.4879s  8.83%
subcost    0.0112s  0.07%
m & new_m 40 45

iteration 7
beginning of step 7 memory used: 77.23 GB
    CPU time for df vj and vk  14582.01 sec, wall time    797.91 sec
    CPU time for df vj and vk  11983.81 sec, wall time    611.66 sec
subspace size: 45
Maximum residual norm:  5.67e-05
unconverged states [0, 1, 2, 3, 4]
sTDDFT_preconditioner conv 0.01
sTDDFT preconditioning Done
after 10 steps; 18.6763 s
final subspace 33
max_norm =  7.12e-03
initial_cost 0.2407s  1.29%
MVcost     13.2976s  71.20%
GScost     2.5876s  13.85%
subgencost 1.9992s  10.70%
subcost    0.0158s  0.08%
m & new_m 45 50

iteration 8
beginning of step 8 memory used: 77.15 GB
    CPU time for df vj and vk  14579.95 sec, wall time    799.84 sec
    CPU time for df vj and vk  12003.11 sec, wall time    612.72 sec
subspace size: 50
Maximum residual norm:  2.44e-05
unconverged states [1, 3, 4]
sTDDFT_preconditioner conv 0.01
sTDDFT preconditioning Done
after 12 steps; 12.3328 s
final subspace 21
max_norm =  7.95e-03
initial_cost 0.1266s  1.03%
MVcost     9.4234s  76.41%
GScost     0.9671s  7.84%
subgencost 1.4462s  11.73%
subcost    0.0110s  0.09%
m & new_m 50 53

iteration 9
beginning of step 9 memory used: 77.13 GB
    CPU time for df vj and vk   8733.33 sec, wall time    480.48 sec
    CPU time for df vj and vk   7196.87 sec, wall time    368.09 sec
subspace size: 53
Maximum residual norm:  1.04e-05
unconverged states [4]
sTDDFT_preconditioner conv 0.01
sTDDFT preconditioning Done
after 13 steps; 7.6803 s
final subspace 13
max_norm =  6.91e-03
initial_cost 0.0318s  0.41%
MVcost     6.2624s  81.54%
GScost     0.4127s  5.37%
subgencost 0.7556s  9.84%
subcost    0.0129s  0.17%
m & new_m 53 54

iteration 10
beginning of step 10 memory used: 77.13 GB
    CPU time for df vj and vk   2884.86 sec, wall time    164.41 sec
    CPU time for df vj and vk   2380.13 sec, wall time    122.37 sec
subspace size: 54
Maximum residual norm:  6.70e-06
TDDFT precedure Done

============= TDDFT Calculation Done ==============
after 11 iterations 17433.52 s
Final subspace  54
preconditioning cost 163.3532 0.01 %
max_norm =  6.70e-06
Total TDDFT memory used: 77.13 GB
Excited State energies (eV) =
 [2.27368097 3.46441116 3.9611051  4.26246216 4.75102232]

Number of excited states = 5
Initial guess:   Adiag
Preconditioner:  Adiag
A matrix size =  224298
new_m = 10
initial guess done

iteration 0
beginning of step 0 memory used: 77.06 GB
    CPU time for df vj and vk  29160.38 sec, wall time   1594.32 sec
    CPU time for df vj and vk  23933.87 sec, wall time   1224.26 sec
subspace size: 10
Maximum residual norm:  1.50e-01
unconverged states [0, 1, 2, 3, 4]
m & new_m 10 15

iteration 1
beginning of step 1 memory used: 77.15 GB
    CPU time for df vj and vk  14578.25 sec, wall time    799.73 sec
    CPU time for df vj and vk  11991.69 sec, wall time    612.37 sec
subspace size: 15
Maximum residual norm:  5.44e-02
unconverged states [0, 1, 2, 3, 4]
m & new_m 15 20

iteration 2
beginning of step 2 memory used: 77.21 GB
    CPU time for df vj and vk  14584.89 sec, wall time    796.44 sec
    CPU time for df vj and vk  12002.13 sec, wall time    611.83 sec
subspace size: 20
Maximum residual norm:  2.72e-02
unconverged states [0, 1, 2, 3, 4]
m & new_m 20 25

iteration 3
beginning of step 3 memory used: 77.20 GB
    CPU time for df vj and vk  14600.08 sec, wall time    796.83 sec
    CPU time for df vj and vk  12011.17 sec, wall time    612.12 sec
subspace size: 25
Maximum residual norm:  1.36e-02
unconverged states [0, 1, 2, 3, 4]
m & new_m 25 30

iteration 4
beginning of step 4 memory used: 77.19 GB
    CPU time for df vj and vk  14567.21 sec, wall time    796.63 sec
    CPU time for df vj and vk  11997.85 sec, wall time    611.57 sec
subspace size: 30
Maximum residual norm:  7.14e-03
unconverged states [0, 1, 2, 3, 4]
m & new_m 30 35

iteration 5
beginning of step 5 memory used: 77.14 GB
    CPU time for df vj and vk  14568.43 sec, wall time    801.13 sec
    CPU time for df vj and vk  11973.82 sec, wall time    611.95 sec
subspace size: 35
Maximum residual norm:  4.19e-03
unconverged states [0, 1, 2, 3, 4]
m & new_m 35 40

iteration 6
beginning of step 6 memory used: 77.18 GB
    CPU time for df vj and vk  14575.90 sec, wall time    799.20 sec
    CPU time for df vj and vk  11988.64 sec, wall time    611.22 sec
subspace size: 40
Maximum residual norm:  2.04e-03
unconverged states [0, 1, 2, 3, 4]
m & new_m 40 45

iteration 7
beginning of step 7 memory used: 77.22 GB
    CPU time for df vj and vk  14569.50 sec, wall time    797.89 sec
    CPU time for df vj and vk  11986.85 sec, wall time    610.85 sec
subspace size: 45
Maximum residual norm:  8.66e-04
unconverged states [0, 1, 2, 3, 4]
m & new_m 45 50

iteration 8
beginning of step 8 memory used: 77.20 GB
    CPU time for df vj and vk  14571.14 sec, wall time    796.32 sec
    CPU time for df vj and vk  11950.99 sec, wall time    609.73 sec
subspace size: 50
Maximum residual norm:  5.23e-04
unconverged states [0, 1, 2, 3, 4]
m & new_m 50 55

iteration 9
beginning of step 9 memory used: 77.21 GB
    CPU time for df vj and vk  14594.85 sec, wall time    799.64 sec
    CPU time for df vj and vk  11999.94 sec, wall time    612.09 sec
subspace size: 55
Maximum residual norm:  3.30e-04
unconverged states [0, 1, 2, 3, 4]
m & new_m 55 60

iteration 10
beginning of step 10 memory used: 77.20 GB
    CPU time for df vj and vk  14580.03 sec, wall time    797.80 sec
    CPU time for df vj and vk  11992.65 sec, wall time    611.52 sec
subspace size: 60
Maximum residual norm:  1.61e-04
unconverged states [1, 2, 3, 4]
m & new_m 60 64

iteration 11
beginning of step 11 memory used: 77.19 GB
    CPU time for df vj and vk  11656.97 sec, wall time    638.38 sec
    CPU time for df vj and vk   9603.61 sec, wall time    489.44 sec
subspace size: 64
Maximum residual norm:  6.97e-05
unconverged states [2, 3, 4]
m & new_m 64 67

iteration 12
beginning of step 12 memory used: 77.16 GB
    CPU time for df vj and vk   8737.73 sec, wall time    481.11 sec
    CPU time for df vj and vk   7199.13 sec, wall time    367.88 sec
subspace size: 67
Maximum residual norm:  2.89e-05
unconverged states [3, 4]
m & new_m 67 69

iteration 13
beginning of step 13 memory used: 77.16 GB
    CPU time for df vj and vk   5810.31 sec, wall time    323.94 sec
    CPU time for df vj and vk   4801.98 sec, wall time    245.12 sec
subspace size: 69
Maximum residual norm:  1.29e-05
unconverged states [4]
m & new_m 69 70

iteration 14
beginning of step 14 memory used: 77.13 GB
    CPU time for df vj and vk   2882.69 sec, wall time    163.85 sec
    CPU time for df vj and vk   2398.19 sec, wall time    122.76 sec
subspace size: 70
Maximum residual norm:  6.09e-06
TDDFT precedure Done

============= TDDFT Calculation Done ==============
after 15 iterations 22341.84 s
Final subspace  70
preconditioning cost 0.6042 0.00 %
max_norm =  6.09e-06
Total TDDFT memory used: 77.10 GB
Excited State energies (eV) =
 [2.27368097 3.46441116 3.9611051  4.26246216 4.75102232]
xyzfile = 99_Carotenoid_B.xyz
checkfile = True
method = RKS
functional = wb97x
basis_set = def2-tzvp
density_fit = True
grid_level = 3
nstates = 5
pytd = False
TDA = False
TDDFT = True
dynpol = False
dynpol_omega = []
stapol = False
sTDA = False
sTDDFT = False
Truncate_test = False
truncate_virtual = 40.0
ip_options = [0, 1]
conv_tolerance = 1e-05
initial_TOL = 0.001
precond_TOL = 0.01
extrainitial = 8
max = 30
eigensolver_tol = 1e-05
memory = 160000
verbose = 5
beta = []
alpha = []
|-------- In-house Developed TDDFT Ends ----------|
