curpath /scratch/pbsjobs/job.16219636.hpc
lib.num_threads() =  20
at beginning memory used: 0.05 GB
mol.max_memory 60000


System: uname_result(system='Linux', node='compt298', release='3.10.0-1127.el7.x86_64', version='#1 SMP Tue Feb 18 16:39:12 EST 2020', machine='x86_64', processor='x86_64')  Threads 20
Python 3.7.0 (default, Aug 23 2018, 14:24:33) 
[GCC 6.3.0]
numpy 1.18.1  scipy 1.4.1
Date: Tue Aug 31 01:04:31 2021
PySCF version 1.7.4
PySCF path  /home/zzz6/.local/lib/python3.7/site-packages/pyscf

[CONFIG] conf_file None
[INPUT] verbose = 5
[INPUT] max_memory = 60000 
[INPUT] num. atoms = 21
[INPUT] num. electrons = 132
[INPUT] charge = 0
[INPUT] spin (= nelec alpha-beta = 2S) = 0
[INPUT] symmetry False subgroup None
[INPUT] Mole.unit = angstrom
[INPUT]  1 Si    -0.589299802045   3.760122738525  -0.398556019827 AA   -1.113615231125   7.105602170561  -0.753161722770 Bohr
[INPUT]  2 Si     0.179527116579   1.587477701699  -0.874867877849 AA    0.339257082267   2.999898085066  -1.653260684314 Bohr
[INPUT]  3 Si     2.543452334338   1.489259144713  -0.876279327934 AA    4.806428322785   2.814291912011  -1.655927938414 Bohr
[INPUT]  4 Si     0.023215453175   4.261178126172   1.822830187218 AA    0.043870848359   8.052459626452   3.444649825431 Bohr
[INPUT]  5 H     -0.341194493580   0.657704410960   0.174973251626 AA   -0.644764148075   1.242881207634   0.330651524699 Bohr
[INPUT]  6 Si     2.304561485223   3.787068260108   2.219656695101 AA    4.354990044292   7.156521826637   4.194543244299 Bohr
[INPUT]  7 Si     3.477347492520   3.349623889994   0.224090243263 AA    6.571234400806   6.329871772389   0.423469186954 Bohr
[INPUT]  8 H      2.400939237630   2.581709827798   3.100290288425 AA    4.537117600842   4.878724507635   5.858699551772 Bohr
[INPUT]  9 H      2.944949606116   4.934755007512   2.928577477275 AA    5.565148206204   9.325335456023   5.534209366619 Bohr
[INPUT] 10 H      3.025448155740   1.483577793593  -2.291640105165 AA    5.717268418420   2.803555714378  -4.330572174831 Bohr
[INPUT] 11 H      2.978615677954   0.210497256511  -0.234787202896 AA    5.628767861669   0.397782164779  -0.443683511026 Bohr
[INPUT] 12 H     -0.798778679492   3.419633493269   2.747459545118 AA   -1.509472938382   6.462170748668   5.191946078594 Bohr
[INPUT] 13 Si     0.715017265467   5.331725985809  -1.538170099142 AA    1.351186806068  10.075501884406  -2.906720220373 Bohr
[INPUT] 14 H     -2.062684380555   3.886924433424  -0.626032300816 AA   -3.897908560667   7.345222646051  -1.183029593674 Bohr
[INPUT] 15 Si     2.909954561647   5.163825864270  -1.137346433214 AA    5.499017156442   9.758216638416  -2.149273267526 Bohr
[INPUT] 16 H      4.947244575338   3.178845754872   0.444994541873 AA    9.348937318630   6.007147868944   0.840917811066 Bohr
[INPUT] 17 O      1.702059522049   6.129963931494  -0.326608414372 AA    3.216426344381  11.583952983985  -0.617200453142 Bohr
[INPUT] 18 H      0.086523977487   6.278730073052  -2.502488334536 AA    0.163506620659  11.865080248139  -4.729017582192 Bohr
[INPUT] 19 H      3.967971076115   5.969123884539  -1.810753868890 AA    7.498378604054  11.280009345379  -3.421828891198 Bohr
[INPUT] 20 H     -0.334924117481   1.120623877938  -2.198659075125 AA   -0.632914854550   2.117672217951  -4.154863493276 Bohr
[INPUT] 21 H     -0.258726064227   5.695988543748   2.115716829869 AA   -0.488921402676  10.763858356344   3.998125365585 Bohr
[INPUT] ---------------- BASIS SET ---------------- 
[INPUT] l, kappa, [nprim/nctr], expnt,             c_1 c_2 ...
[INPUT] Si
[INPUT] 0    0    [7    /1   ]  44773.358078      0.00055914765868
                                6717.1992104      0.0043206040189
                                1528.8960325      0.02218709646
                                432.54746585      0.086489249116
                                140.61505226      0.24939889716
                                49.857636724      0.46017197366
                                18.434974885      0.34250236575
[INPUT] 0    0    [3    /1   ]  86.533886111      0.021300063007
                                26.624606846      0.094676139318
                                4.4953057159      -0.32616264859
[INPUT] 0    0    [2    /1   ]  2.103504571       1.398080385
                                1.0106094922      0.63865786699
[INPUT] 0    0    [1    /1   ]  0.23701751489        1
[INPUT] 0    0    [1    /1   ]  0.085703405362       1
[INPUT] 1    0    [5    /1   ]  394.47503628      0.0026285693959
                                93.137683104      0.020556257749
                                29.519608742      0.092070262801
                                10.781663791      0.25565889739
                                4.1626574778      0.42111707185
[INPUT] 1    0    [1    /1   ]  1.6247972989         1
[INPUT] 1    0    [1    /1   ]  0.54306660493        1
[INPUT] 1    0    [1    /1   ]  0.20582073956        1
[INPUT] 1    0    [1    /1   ]  0.070053487306       1
[INPUT] 2    0    [2    /1   ]  2.303              0.2
                                0.476                1
[INPUT] 2    0    [1    /1   ]  0.16                 1
[INPUT] 3    0    [1    /1   ]  0.336                1
[INPUT] O
[INPUT] 0    0    [6    /1   ]  27032.382631      0.00021726302465
                                4052.3871392      0.0016838662199
                                922.3272271       0.0087395616265
                                261.24070989      0.035239968808
                                85.354641351      0.11153519115
                                31.035035245      0.25588953961
[INPUT] 0    0    [2    /1   ]  12.260860728      0.39768730901
                                4.9987076005      0.2462784943
[INPUT] 0    0    [1    /1   ]  1.1703108158         1
[INPUT] 0    0    [1    /1   ]  0.46474740994        1
[INPUT] 0    0    [1    /1   ]  0.18504536357        1
[INPUT] 1    0    [4    /1   ]  63.274954801      0.0060685103418
                                14.627049379      0.041912575824
                                4.4501223456      0.16153841088
                                1.5275799647      0.35706951311
[INPUT] 1    0    [1    /1   ]  0.52935117943        1
[INPUT] 1    0    [1    /1   ]  0.1747842127         1
[INPUT] 2    0    [1    /1   ]  2.314                1
[INPUT] 2    0    [1    /1   ]  0.645                1
[INPUT] 3    0    [1    /1   ]  1.428                1
[INPUT] H
[INPUT] 0    0    [3    /1   ]  34.061341         0.0060251978
                                5.1235746         0.045021094
                                1.1646626         0.20189726
[INPUT] 0    0    [1    /1   ]  0.32723041           1
[INPUT] 0    0    [1    /1   ]  0.10307241           1
[INPUT] 1    0    [1    /1   ]  0.8                  1

nuclear repulsion = 1280.37208714691
number of shells = 163
number of NR pGTOs = 646
number of NR cGTOs = 399
basis = def2-tzvp
ecp = {}
CPU time:         3.16
RKS
Density fitting turned on
Molecule built
Calculating SCF Energy...


******** <class 'pyscf.df.df_jk.density_fit.<locals>.DFHF'> ********
method = DFHF-RKS-RHF
initial guess = chkfile
damping factor = 0
level_shift factor = 0
DIIS = <class 'pyscf.scf.diis.CDIIS'>
diis_start_cycle = 1
diis_space = 8
SCF conv_tol = 1e-10
SCF conv_tol_grad = None
SCF max_cycles = 50
direct_scf = True
direct_scf_tol = 1e-13
chkfile to save SCF result = 21_Si_nano_pbe0.chk
max_memory 60000 MB (current use 55 MB)
XC functionals = pbe0
small_rho_cutoff = 1e-07
radial grids: 
    Treutler-Ahlrichs [JCP 102, 346 (1995); DOI:10.1063/1.469408] (M4) radial grids
    
becke partition: Becke, JCP 88, 2547 (1988); DOI:10.1063/1.454033
pruning grids: <function nwchem_prune at 0x7f6af02cde18>
grids dens level: 3
symmetrized grids: False
atomic radii adjust function: <function treutler_atomic_radii_adjust at 0x7f6af02cdd90>
Set gradient conv threshold to 1e-05
atom Si rad-grids = 80, ang-grids = [ 50  50  50  50  50  50  50  50  50  50  50  50  50  50  50  50  50  50
  50  50  50  50  50  50  86  86  86  86  86  86  86  86  86  86  86  86
  86  86 350 350 350 350 350 350 350 350 350 434 434 434 434 434 434 434
 434 434 434 434 434 434 434 434 434 434 434 434 350 350 350 350 350 350
 350 350 350 350 350 350 350 350]
atom H rad-grids = 50, ang-grids = [ 50  50  50  50  50  50  50  50  50  50  50  50  50  50  86  86  86  86
 266 266 266 266 302 302 302 302 302 302 302 302 302 302 302 302 302 266
 266 266 266 266 266 266 266 266 266 266 266 266 266 266]
atom O rad-grids = 75, ang-grids = [ 50  50  50  50  50  50  50  50  50  50  50  50  50  50  50  50  50  50
  50  50  50  50  86  86  86  86  86  86  86  86  86 266 266 266 266 266
 266 266 302 302 302 302 302 302 302 302 302 302 302 302 302 302 302 302
 302 302 302 266 266 266 266 266 266 266 266 266 266 266 266 266 266 266
 266 266 266]
tot grids = 284150
Drop grids 35163
    CPU time for setting up grids     30.95 sec, wall time      1.68 sec
nelec by numeric integration = 132.0000194578112
    CPU time for vxc     36.46 sec, wall time      2.12 sec
******** <class 'pyscf.df.df.DF'> ********
auxbasis = None
max_memory = 60000
_cderi_to_save = /tmp/job.16219636.hpc/tmpcsmgddke
Default auxbasis def2-tzvp-jkfit is used for Si def2-tzvp
Default auxbasis def2-tzvp-jkfit is used for O def2-tzvp
Default auxbasis def2-tzvp-jkfit is used for H def2-tzvp
num shells = 401, num cGTOs = 1317
size of aux basis 1317
int3c2e [1/1], AO [0:163], nrow = 79800
    CPU time for cholesky_eri     16.47 sec, wall time      2.85 sec
    CPU time for df vj and vk     32.05 sec, wall time      4.00 sec
E1 = -5878.283141587044  Ecoul = 2379.8767511302012  Exc = -179.47338347650276
init E= -2397.50768678644
cond(S) = 12197.11414508922
    CPU time for initialize scf    102.90 sec, wall time      8.04 sec
  HOMO = -0.245168250191508  LUMO = -0.0523352860884549
  mo_energy =
[-6.62727131e+01 -6.62720218e+01 -6.62492091e+01 -6.62490551e+01
 -6.62481196e+01 -6.62476574e+01 -6.62472521e+01 -6.62459050e+01
 -1.92041240e+01 -5.35096599e+00 -5.35027112e+00 -5.33169739e+00
 -5.33147690e+00 -5.33110476e+00 -5.33062725e+00 -5.32961261e+00
 -5.32815924e+00 -3.68595495e+00 -3.68532362e+00 -3.68454311e+00
 -3.68341063e+00 -3.68323267e+00 -3.68261964e+00 -3.66536956e+00
 -3.66510197e+00 -3.66498517e+00 -3.66474531e+00 -3.66468492e+00
 -3.66466378e+00 -3.66452016e+00 -3.66423595e+00 -3.66421292e+00
 -3.66406648e+00 -3.66371575e+00 -3.66358049e+00 -3.66317723e+00
 -3.66290499e+00 -3.66261324e+00 -3.66174714e+00 -3.66145776e+00
 -3.66107301e+00 -9.94818249e-01 -6.19089876e-01 -5.83230015e-01
 -5.74257231e-01 -5.49275637e-01 -5.15827586e-01 -5.07278991e-01
 -4.90137348e-01 -4.59560740e-01 -4.23925262e-01 -3.99816346e-01
 -3.89278538e-01 -3.85484176e-01 -3.77894619e-01 -3.60253139e-01
 -3.53204876e-01 -3.50611569e-01 -3.48434268e-01 -3.27563893e-01
 -3.02566398e-01 -2.96124042e-01 -2.90612885e-01 -2.86178533e-01
 -2.84567564e-01 -2.45168250e-01 -5.23352861e-02 -4.76588083e-02
 -3.51611222e-02 -3.46474004e-02 -2.51991721e-02 -1.11123466e-02
 -7.97821254e-03  1.31278613e-05  7.00313912e-03  1.04191000e-02
  2.26420641e-02  3.60174216e-02  3.99205013e-02  4.43284259e-02
  6.56949858e-02  7.09070436e-02  7.77656438e-02  9.02733930e-02
  9.16078087e-02  9.96029951e-02  1.02162897e-01  1.10214448e-01
  1.15806453e-01  1.17666990e-01  1.25011551e-01  1.28172665e-01
  1.36430681e-01  1.38510948e-01  1.39386244e-01  1.43472109e-01
  1.49148866e-01  1.54254583e-01  1.58399169e-01  1.71907296e-01
  1.90479624e-01  1.94473834e-01  1.98446274e-01  2.03166536e-01
  2.06453208e-01  2.14851456e-01  2.18395365e-01  2.24456378e-01
  2.43249369e-01  2.46567524e-01  2.51501145e-01  2.61562362e-01
  2.67387844e-01  2.69681704e-01  2.79592341e-01  2.85713725e-01
  2.97442094e-01  2.99752152e-01  3.08888702e-01  3.16901035e-01
  3.23500526e-01  3.26140115e-01  3.32660734e-01  3.41007424e-01
  3.48842123e-01  3.54429820e-01  3.57092527e-01  3.63904854e-01
  3.64433084e-01  3.72446782e-01  3.78322661e-01  3.82986061e-01
  3.83336714e-01  3.88567804e-01  3.89605896e-01  3.92916485e-01
  3.99129450e-01  4.03659269e-01  4.07950378e-01  4.17431642e-01
  4.32685342e-01  4.52806331e-01  4.55405075e-01  4.65097079e-01
  4.73316419e-01  4.79902832e-01  4.93132185e-01  5.01132684e-01
  5.10217355e-01  5.12452959e-01  5.14072173e-01  5.28807404e-01
  5.41457422e-01  5.44936257e-01  5.53151518e-01  5.58139254e-01
  5.59975307e-01  5.61993372e-01  5.67320188e-01  5.74443843e-01
  6.07155474e-01  6.09620315e-01  6.23007531e-01  6.25911925e-01
  6.44978857e-01  6.53004245e-01  6.61437673e-01  6.69330412e-01
  6.83136830e-01  6.85089830e-01  7.02415353e-01  7.16095903e-01
  7.29589646e-01  7.47859255e-01  7.69555086e-01  8.11768427e-01
  8.18005795e-01  8.29912065e-01  8.37287168e-01  8.60549708e-01
  8.75781871e-01  8.86518113e-01  8.93922847e-01  9.00182297e-01
  9.05250651e-01  9.21663416e-01  9.29098853e-01  9.35778804e-01
  9.43401912e-01  9.51914844e-01  9.63556680e-01  9.67927939e-01
  9.85703891e-01  9.92350687e-01  1.00249562e+00  1.00377727e+00
  1.00638446e+00  1.01904540e+00  1.02256893e+00  1.02796602e+00
  1.03001307e+00  1.04072352e+00  1.04552351e+00  1.05163963e+00
  1.05855125e+00  1.06006088e+00  1.06674721e+00  1.06957808e+00
  1.07594710e+00  1.07997180e+00  1.08775033e+00  1.09020626e+00
  1.09068407e+00  1.09796509e+00  1.10273756e+00  1.10505391e+00
  1.10873400e+00  1.11392136e+00  1.12099850e+00  1.12361855e+00
  1.12907890e+00  1.13535768e+00  1.15152295e+00  1.15225768e+00
  1.15874280e+00  1.16706243e+00  1.17037557e+00  1.18143271e+00
  1.19150328e+00  1.19745061e+00  1.20033027e+00  1.20635635e+00
  1.21683198e+00  1.22090192e+00  1.22653009e+00  1.23531748e+00
  1.23870596e+00  1.24810560e+00  1.25494235e+00  1.26526860e+00
  1.26883607e+00  1.28017342e+00  1.29566928e+00  1.30560774e+00
  1.32572234e+00  1.33293405e+00  1.33807527e+00  1.35096833e+00
  1.35156453e+00  1.36001015e+00  1.39395054e+00  1.40005867e+00
  1.41487175e+00  1.42786153e+00  1.44464246e+00  1.45997797e+00
  1.46244910e+00  1.47015178e+00  1.50027018e+00  1.52356011e+00
  1.53089805e+00  1.55061133e+00  1.55225797e+00  1.57573068e+00
  1.58563156e+00  1.59161324e+00  1.59798029e+00  1.60321887e+00
  1.61956656e+00  1.62328578e+00  1.63401511e+00  1.64495829e+00
  1.64616050e+00  1.66035295e+00  1.66303873e+00  1.68065690e+00
  1.68831502e+00  1.69622350e+00  1.70170329e+00  1.71103922e+00
  1.72415128e+00  1.74331976e+00  1.74385198e+00  1.75152439e+00
  1.76615486e+00  1.77151284e+00  1.78782816e+00  1.80331047e+00
  1.80428557e+00  1.81991200e+00  1.83916539e+00  1.86976473e+00
  1.87420916e+00  1.89901921e+00  1.90569284e+00  1.91150043e+00
  1.91660723e+00  1.92423491e+00  1.93097706e+00  1.93699863e+00
  1.94245018e+00  1.95442350e+00  1.96405108e+00  1.96585713e+00
  1.97311065e+00  1.98124627e+00  1.98273502e+00  2.00172970e+00
  2.00432737e+00  2.01259698e+00  2.02400884e+00  2.03504230e+00
  2.04409815e+00  2.06040234e+00  2.06998579e+00  2.07424814e+00
  2.09219167e+00  2.09788493e+00  2.10530981e+00  2.11421835e+00
  2.12703453e+00  2.14088607e+00  2.14810501e+00  2.17024190e+00
  2.24199346e+00  2.26083507e+00  2.30711073e+00  2.31704427e+00
  2.32906249e+00  2.33072167e+00  2.33162585e+00  2.33510184e+00
  2.37828236e+00  2.38912570e+00  2.39886368e+00  2.41762666e+00
  2.42831432e+00  2.54468178e+00  2.65665562e+00  2.73013866e+00
  2.77969795e+00  2.78953351e+00  2.83999860e+00  2.86833430e+00
  2.87549487e+00  2.89596221e+00  2.94871732e+00  2.95881171e+00
  2.96472182e+00  3.02294757e+00  3.03560370e+00  3.12010384e+00
  3.19535242e+00  3.46857894e+00  5.18016934e+00  5.18469628e+00
  5.19899401e+00  5.20782321e+00  5.22958254e+00  5.27157455e+00
  5.27571248e+00  6.20586036e+00  6.23482973e+00  6.24385129e+00
  6.24938144e+00  6.26471892e+00  6.27442884e+00  6.28893261e+00
  6.29187909e+00  6.29592672e+00  6.30590249e+00  6.30760146e+00
  6.33974812e+00  6.34974139e+00  6.38240612e+00  6.39002597e+00
  6.41041081e+00  6.44873446e+00  6.45574257e+00  6.48404885e+00
  6.49567504e+00  6.50404814e+00  6.50950151e+00  6.53018108e+00
  6.57837268e+00  6.60447230e+00  6.62602786e+00  6.63515025e+00
  6.80083457e+00  7.03545395e+00  1.02381772e+01  1.04956112e+01
  1.05122881e+01  1.05484110e+01  1.06534627e+01  1.06569843e+01
  1.07004114e+01  1.10372702e+01  4.37161987e+01]
nelec by numeric integration = 132.00001945777788
    CPU time for vxc     47.69 sec, wall time      2.74 sec
    CPU time for df vj and vk     16.11 sec, wall time      1.14 sec
E1 = -5878.283091206522  Ecoul = 2379.876698798348  Exc = -179.47338152517437
cycle= 1 E= -2397.50768678644  delta_E= -2.73e-12  |g|= 4.35e-06  |ddm|= 6.51e-06
    CPU time for cycle= 1     64.82 sec, wall time      4.00 sec
  HOMO = -0.245168332105207  LUMO = -0.0523351947322329
  mo_energy =
[-6.62727107e+01 -6.62720225e+01 -6.62492093e+01 -6.62490549e+01
 -6.62481191e+01 -6.62476596e+01 -6.62472530e+01 -6.62459068e+01
 -1.92041270e+01 -5.35096408e+00 -5.35027177e+00 -5.33169759e+00
 -5.33147673e+00 -5.33110433e+00 -5.33062916e+00 -5.32961342e+00
 -5.32816084e+00 -3.68595300e+00 -3.68532422e+00 -3.68454168e+00
 -3.68340988e+00 -3.68323167e+00 -3.68262026e+00 -3.66536968e+00
 -3.66510210e+00 -3.66498510e+00 -3.66474552e+00 -3.66468451e+00
 -3.66466372e+00 -3.66451999e+00 -3.66423786e+00 -3.66421256e+00
 -3.66406609e+00 -3.66371763e+00 -3.66358239e+00 -3.66317798e+00
 -3.66290582e+00 -3.66261406e+00 -3.66174875e+00 -3.66145934e+00
 -3.66107461e+00 -9.94819408e-01 -6.19090292e-01 -5.83230387e-01
 -5.74257633e-01 -5.49275790e-01 -5.15827675e-01 -5.07279391e-01
 -4.90137619e-01 -4.59561013e-01 -4.23925602e-01 -3.99816904e-01
 -3.89279018e-01 -3.85484381e-01 -3.77894822e-01 -3.60253249e-01
 -3.53205438e-01 -3.50611977e-01 -3.48434548e-01 -3.27564390e-01
 -3.02566526e-01 -2.96124737e-01 -2.90613355e-01 -2.86178900e-01
 -2.84567905e-01 -2.45168332e-01 -5.23351947e-02 -4.76590449e-02
 -3.51614988e-02 -3.46476191e-02 -2.51994298e-02 -1.11127893e-02
 -7.97827541e-03  1.27770634e-05  7.00287340e-03  1.04190758e-02
  2.26418107e-02  3.60171705e-02  3.99201120e-02  4.43282296e-02
  6.56948442e-02  7.09069025e-02  7.77656318e-02  9.02733213e-02
  9.16076256e-02  9.96029138e-02  1.02162684e-01  1.10214319e-01
  1.15806281e-01  1.17666874e-01  1.25011482e-01  1.28172374e-01
  1.36430604e-01  1.38510768e-01  1.39386157e-01  1.43471971e-01
  1.49148616e-01  1.54254383e-01  1.58399053e-01  1.71907210e-01
  1.90479370e-01  1.94473748e-01  1.98446025e-01  2.03166361e-01
  2.06453057e-01  2.14851243e-01  2.18395296e-01  2.24456386e-01
  2.43249176e-01  2.46567335e-01  2.51500983e-01  2.61562210e-01
  2.67387677e-01  2.69681606e-01  2.79592288e-01  2.85713571e-01
  2.97442015e-01  2.99751860e-01  3.08888546e-01  3.16900963e-01
  3.23500431e-01  3.26139914e-01  3.32660664e-01  3.41007215e-01
  3.48841829e-01  3.54429715e-01  3.57092284e-01  3.63904740e-01
  3.64432846e-01  3.72446690e-01  3.78322435e-01  3.82985851e-01
  3.83336573e-01  3.88567760e-01  3.89605762e-01  3.92916162e-01
  3.99129217e-01  4.03658935e-01  4.07950062e-01  4.17431542e-01
  4.32685114e-01  4.52806189e-01  4.55404870e-01  4.65096823e-01
  4.73316091e-01  4.79902503e-01  4.93131946e-01  5.01132594e-01
  5.10217098e-01  5.12452536e-01  5.14071896e-01  5.28807347e-01
  5.41457271e-01  5.44936085e-01  5.53151335e-01  5.58139008e-01
  5.59974957e-01  5.61993242e-01  5.67319979e-01  5.74443651e-01
  6.07155235e-01  6.09620176e-01  6.23007386e-01  6.25911694e-01
  6.44978629e-01  6.53003916e-01  6.61437437e-01  6.69330288e-01
  6.83136661e-01  6.85089563e-01  7.02415085e-01  7.16095748e-01
  7.29589363e-01  7.47858842e-01  7.69554826e-01  8.11768213e-01
  8.18005559e-01  8.29911811e-01  8.37286746e-01  8.60549474e-01
  8.75781581e-01  8.86517911e-01  8.93922492e-01  9.00182134e-01
  9.05250393e-01  9.21663239e-01  9.29098597e-01  9.35778581e-01
  9.43401611e-01  9.51914769e-01  9.63556492e-01  9.67927663e-01
  9.85703570e-01  9.92350513e-01  1.00249539e+00  1.00377700e+00
  1.00638402e+00  1.01904528e+00  1.02256857e+00  1.02796578e+00
  1.03001269e+00  1.04072344e+00  1.04552333e+00  1.05163943e+00
  1.05855101e+00  1.06006068e+00  1.06674696e+00  1.06957788e+00
  1.07594682e+00  1.07997164e+00  1.08775000e+00  1.09020598e+00
  1.09068381e+00  1.09796473e+00  1.10273727e+00  1.10505353e+00
  1.10873365e+00  1.11392123e+00  1.12099832e+00  1.12361839e+00
  1.12907872e+00  1.13535739e+00  1.15152271e+00  1.15225716e+00
  1.15874260e+00  1.16706231e+00  1.17037525e+00  1.18143240e+00
  1.19150307e+00  1.19745043e+00  1.20033002e+00  1.20635603e+00
  1.21683173e+00  1.22090160e+00  1.22653001e+00  1.23531716e+00
  1.23870584e+00  1.24810534e+00  1.25494205e+00  1.26526813e+00
  1.26883571e+00  1.28017309e+00  1.29566891e+00  1.30560745e+00
  1.32572206e+00  1.33293382e+00  1.33807544e+00  1.35096792e+00
  1.35156429e+00  1.36000970e+00  1.39395021e+00  1.40005840e+00
  1.41487138e+00  1.42786135e+00  1.44464230e+00  1.45997785e+00
  1.46244894e+00  1.47015134e+00  1.50026998e+00  1.52355993e+00
  1.53089784e+00  1.55061094e+00  1.55225776e+00  1.57573033e+00
  1.58563129e+00  1.59161302e+00  1.59798003e+00  1.60321856e+00
  1.61956622e+00  1.62328563e+00  1.63401486e+00  1.64495797e+00
  1.64616025e+00  1.66035266e+00  1.66303832e+00  1.68065654e+00
  1.68831481e+00  1.69622326e+00  1.70170301e+00  1.71103898e+00
  1.72415105e+00  1.74331959e+00  1.74385158e+00  1.75152404e+00
  1.76615474e+00  1.77151266e+00  1.78782793e+00  1.80331035e+00
  1.80428537e+00  1.81991173e+00  1.83916507e+00  1.86976451e+00
  1.87420911e+00  1.89901902e+00  1.90569258e+00  1.91150028e+00
  1.91660704e+00  1.92423472e+00  1.93097683e+00  1.93699852e+00
  1.94244985e+00  1.95442341e+00  1.96405088e+00  1.96585692e+00
  1.97311058e+00  1.98124601e+00  1.98273496e+00  2.00172944e+00
  2.00432731e+00  2.01259688e+00  2.02400847e+00  2.03504212e+00
  2.04409805e+00  2.06040207e+00  2.06998555e+00  2.07424786e+00
  2.09219120e+00  2.09788484e+00  2.10530954e+00  2.11421793e+00
  2.12703414e+00  2.14088548e+00  2.14810479e+00  2.17024154e+00
  2.24199294e+00  2.26083465e+00  2.30711040e+00  2.31704421e+00
  2.32906241e+00  2.33072158e+00  2.33162568e+00  2.33510173e+00
  2.37828231e+00  2.38912565e+00  2.39886356e+00  2.41762636e+00
  2.42831411e+00  2.54468182e+00  2.65665558e+00  2.73013848e+00
  2.77969788e+00  2.78953348e+00  2.83999836e+00  2.86833410e+00
  2.87549462e+00  2.89596161e+00  2.94871742e+00  2.95881139e+00
  2.96472171e+00  3.02294740e+00  3.03560343e+00  3.12010246e+00
  3.19535138e+00  3.46857792e+00  5.18016810e+00  5.18469523e+00
  5.19899274e+00  5.20782197e+00  5.22958137e+00  5.27157333e+00
  5.27571128e+00  6.20586082e+00  6.23482959e+00  6.24385076e+00
  6.24938105e+00  6.26471845e+00  6.27442789e+00  6.28893235e+00
  6.29187853e+00  6.29592669e+00  6.30590192e+00  6.30760093e+00
  6.33974770e+00  6.34974086e+00  6.38240592e+00  6.39002566e+00
  6.41041014e+00  6.44873412e+00  6.45574163e+00  6.48404825e+00
  6.49567468e+00  6.50404748e+00  6.50950074e+00  6.53018050e+00
  6.57837219e+00  6.60447091e+00  6.62602628e+00  6.63514899e+00
  6.80083393e+00  7.03545317e+00  1.02381768e+01  1.04956106e+01
  1.05122879e+01  1.05484103e+01  1.06534623e+01  1.06569843e+01
  1.07004107e+01  1.10372706e+01  4.37161959e+01]
nelec by numeric integration = 132.00001945782643
    CPU time for vxc     42.91 sec, wall time      2.42 sec
    CPU time for df vj and vk     16.97 sec, wall time      1.13 sec
E1 = -5878.283177089864  Ecoul = 2379.876788776521  Exc = -179.47338561999325
Extra cycle  E= -2397.50768678643  delta_E= 1.27e-11  |g|= 7.85e-06  |ddm|= 9.68e-06
    CPU time for scf_cycle    228.50 sec, wall time     15.69 sec
    CPU time for SCF    228.50 sec, wall time     15.69 sec
converged SCF energy = -2397.50768678643
SCF Done after 15.72 seconds
after SCF memory used: 1.12 GB
Converting <class 'pyscf.df.df_jk.density_fit.<locals>.DFHF'> to RHF
Converting <class 'pyscf.df.df_jk.density_fit.<locals>.DFHF'> to RHF
hdiag shape (21978,)
n_occ =  66
n_vir =  333
max_vir =  168
A_size =  21978
A_reduced_size = 11088
a_x = 0.25
beta = 0.6575
alpha = 1.54
Q-Gamma tensors building time = 0.07
after Q matrix memory used: 1.24 GB
stapol
|-------- In-house Developed stapol Starts ---------|
Residual conv = 1e-05


initial guess sTDDFT
preconditioner sTDDFT
Static polarizability procedure aborted
sTDDFT Stapol precond Converged
after 4 steps 0.0646 s
conv threhsold = 1.00e-02
final subspace: 10
max_norm =  8.31e-03
initial_cost 0.0016s  2.51%
MVcost     0.0400s  61.85%
GScost     0.0068s  10.56%
subgencost 0.0035s  5.42%
subcost    0.0002s  0.39%
alpha tensor of initial guess:
[[ 3.55364620e+02 -9.69811662e-02  1.68243188e+00]
 [-9.69811662e-02  3.39854113e+02 -5.68944668e+00]
 [ 1.68243188e+00 -5.68944668e+00  3.42806110e+02]]
new_m = 3

Iteration 0
    CPU time for df vj and vk     42.08 sec, wall time      2.74 sec
max_norm = 4.21e-01
Static polarizability procedure aborted
sTDDFT Stapol precond Converged
after 4 steps 0.0640 s
conv threhsold = 1.00e-02
final subspace: 10
max_norm =  6.71e-03
initial_cost 0.0082s  12.82%
MVcost     0.0410s  64.04%
GScost     0.0066s  10.28%
subgencost 0.0032s  5.07%
subcost    0.0002s  0.29%

Iteration 1
    CPU time for df vj and vk     42.73 sec, wall time      2.77 sec
max_norm = 1.71e-01
Static polarizability procedure aborted
sTDDFT Stapol precond Converged
after 3 steps 0.0581 s
conv threhsold = 1.00e-02
final subspace: 9
max_norm =  6.76e-03
initial_cost 0.0018s  3.02%
MVcost     0.0428s  73.62%
GScost     0.0055s  9.54%
subgencost 0.0026s  4.51%
subcost    0.0001s  0.25%

Iteration 2
    CPU time for df vj and vk     41.70 sec, wall time      2.73 sec
max_norm = 5.94e-02
Static polarizability procedure aborted
sTDDFT Stapol precond Converged
after 3 steps 0.0535 s
conv threhsold = 1.00e-02
final subspace: 9
max_norm =  7.93e-03
initial_cost 0.0024s  4.55%
MVcost     0.0379s  70.85%
GScost     0.0053s  9.96%
subgencost 0.0025s  4.74%
subcost    0.0002s  0.28%

Iteration 3
    CPU time for df vj and vk     43.13 sec, wall time      2.84 sec
max_norm = 1.59e-02
Static polarizability procedure aborted
sTDDFT Stapol precond Converged
after 3 steps 0.0480 s
conv threhsold = 1.00e-02
final subspace: 9
max_norm =  6.22e-03
initial_cost 0.0016s  3.23%
MVcost     0.0345s  71.89%
GScost     0.0050s  10.41%
subgencost 0.0024s  5.07%
subcost    0.0001s  0.29%

Iteration 4
    CPU time for df vj and vk     46.28 sec, wall time      3.18 sec
max_norm = 5.02e-03
Static polarizability procedure aborted
sTDDFT Stapol precond Converged
after 3 steps 0.0580 s
conv threhsold = 1.00e-02
final subspace: 9
max_norm =  7.94e-03
initial_cost 0.0025s  4.26%
MVcost     0.0429s  73.96%
GScost     0.0051s  8.71%
subgencost 0.0025s  4.31%
subcost    0.0002s  0.31%

Iteration 5
    CPU time for df vj and vk     45.74 sec, wall time      3.21 sec
max_norm = 1.35e-03
Static polarizability procedure aborted
sTDDFT Stapol precond Converged
after 3 steps 0.0711 s
conv threhsold = 1.00e-02
final subspace: 9
max_norm =  7.41e-03
initial_cost 0.0055s  7.74%
MVcost     0.0458s  64.41%
GScost     0.0054s  7.61%
subgencost 0.0026s  3.61%
subcost    0.0002s  0.23%

Iteration 6
    CPU time for df vj and vk     43.49 sec, wall time      3.02 sec
max_norm = 3.82e-04
Static polarizability procedure aborted
sTDDFT Stapol precond Converged
after 4 steps 0.0601 s
conv threhsold = 1.00e-02
final subspace: 10
max_norm =  5.87e-03
initial_cost 0.0017s  2.85%
MVcost     0.0426s  70.79%
GScost     0.0064s  10.65%
subgencost 0.0037s  6.19%
subcost    0.0002s  0.31%

Iteration 7
    CPU time for df vj and vk     42.38 sec, wall time      2.81 sec
max_norm = 1.18e-04
Static polarizability procedure aborted
sTDDFT Stapol precond Converged
after 4 steps 0.0601 s
conv threhsold = 1.00e-02
final subspace: 10
max_norm =  5.32e-03
initial_cost 0.0016s  2.66%
MVcost     0.0433s  72.01%
GScost     0.0063s  10.47%
subgencost 0.0036s  6.02%
subcost    0.0002s  0.30%

Iteration 8
    CPU time for df vj and vk     44.05 sec, wall time      2.82 sec
max_norm = 2.68e-05
Static polarizability procedure aborted
sTDDFT Stapol precond Converged
after 4 steps 0.0442 s
conv threhsold = 1.00e-02
final subspace: 7
max_norm =  9.49e-03
initial_cost 0.0010s  2.31%
MVcost     0.0334s  75.57%
GScost     0.0035s  7.95%
subgencost 0.0023s  5.30%
subcost    0.0002s  0.40%

Iteration 9
    CPU time for df vj and vk     28.83 sec, wall time      1.84 sec
max_norm = 8.47e-06
static polarizability precodure aborted

Static polarizability Converged
after 10 steps; 72.7430 s
final subspace (29, 29)
max_norm =  8.47e-06
initial_cost 0.0687s  0.09%
MVcost     71.8019s  98.71%
Pcost      0.5246s  0.72%
Static polarizability tensor alpha
[[244.68158862  -1.63679033   2.20677628]
 [ -1.63679033 225.51000647  -2.12134356]
 [  2.20677628  -2.12134356 222.55379563]]


initial guess Adiag
preconditioner Adiag
alpha tensor of initial guess:
[[413.29633851  -2.97566437   6.88491935]
 [ -2.97566437 369.05721973  -5.86335927]
 [  6.88491935  -5.86335927 367.1867504 ]]
new_m = 3

Iteration 0
    CPU time for df vj and vk     49.45 sec, wall time      3.50 sec
max_norm = 4.36e-01

Iteration 1
    CPU time for df vj and vk     44.01 sec, wall time      3.12 sec
max_norm = 1.80e-01

Iteration 2
    CPU time for df vj and vk     43.56 sec, wall time      2.85 sec
max_norm = 5.06e-02

Iteration 3
    CPU time for df vj and vk     49.72 sec, wall time      3.42 sec
max_norm = 1.37e-02

Iteration 4
    CPU time for df vj and vk     45.32 sec, wall time      3.11 sec
max_norm = 2.06e-03

Iteration 5
    CPU time for df vj and vk     44.04 sec, wall time      2.97 sec
max_norm = 5.72e-04

Iteration 6
    CPU time for df vj and vk     43.32 sec, wall time      2.84 sec
max_norm = 1.57e-04

Iteration 7
    CPU time for df vj and vk     42.33 sec, wall time      2.80 sec
max_norm = 4.17e-05

Iteration 8
    CPU time for df vj and vk     42.60 sec, wall time      2.82 sec
max_norm = 9.45e-06
static polarizability precodure aborted

Static polarizability Converged
after 9 steps; 67.4694 s
final subspace (27, 27)
max_norm =  9.45e-06
initial_cost 0.0083s  0.01%
MVcost     67.1240s  99.49%
Pcost      0.0037s  0.01%
Static polarizability tensor alpha
[[244.68158862  -1.63679033   2.20677628]
 [ -1.63679033 225.51000647  -2.12134356]
 [  2.20677628  -2.12134356 222.55379563]]
xyzfile = 21_Si_nano.xyz
checkfile = True
method = RKS
functional = pbe0
basis_set = def2-tzvp
density_fit = True
grid_level = 3
nstates = 4
pytd = False
TDA = False
TDDFT = False
dynpol = False
dynpol_omega = []
stapol = True
sTDA = False
sTDDFT = False
Truncate_test = False
truncate_virtual = 40.0
ip_options = [0, 1]
conv_tolerance = 1e-05
initial_TOL = 0.01
precond_TOL = 0.01
extrainitial = 8
max = 30
eigensolver_tol = 1e-05
memory = 60000
verbose = 5
beta = []
alpha = []
|-------- In-house Developed stapol Ends ----------|
