curpath /scratch/pbsjobs/job.16219508.hpc
lib.num_threads() =  20
at beginning memory used: 0.05 GB
mol.max_memory 50000


System: uname_result(system='Linux', node='compt241', release='3.10.0-1127.el7.x86_64', version='#1 SMP Tue Feb 18 16:39:12 EST 2020', machine='x86_64', processor='x86_64')  Threads 20
Python 3.7.0 (default, Aug 23 2018, 14:24:33) 
[GCC 6.3.0]
numpy 1.18.1  scipy 1.4.1
Date: Mon Aug 30 18:01:18 2021
PySCF version 1.7.4
PySCF path  /home/zzz6/.local/lib/python3.7/site-packages/pyscf

[CONFIG] conf_file None
[INPUT] verbose = 5
[INPUT] max_memory = 50000 
[INPUT] num. atoms = 36
[INPUT] num. electrons = 146
[INPUT] charge = 0
[INPUT] spin (= nelec alpha-beta = 2S) = 0
[INPUT] symmetry False subgroup None
[INPUT] Mole.unit = angstrom
[INPUT]  1 C     -0.770776205221  -0.810934812406   6.910435180694 AA   -1.456555931199  -1.532444700322  13.058829893071 Bohr
[INPUT]  2 C      0.274362451006  -0.114946085476   6.215462603653 AA    0.518469891266  -0.217216620640  11.745522058381 Bohr
[INPUT]  3 C      0.953194199126   0.974831137340   6.767514665989 AA    1.801275979871   1.842163867271  12.788749262696 Bohr
[INPUT]  4 C      0.597320635556   1.383154759756   8.062251651777 AA    1.128772409753   2.613783683828  15.235447569181 Bohr
[INPUT]  5 C     -0.438119660860   0.705287818263   8.767318137668 AA   -0.827926168813   1.332800815508  16.567830127123 Bohr
[INPUT]  6 C     -1.116093460692  -0.377875129474   8.210852076749 AA   -2.109110970125  -0.714080503989  15.516261674373 Bohr
[INPUT]  7 C     -1.238528027404  -1.841090150700   6.033949970660 AA   -2.340478769392  -3.479156155458  11.402512893876 Bohr
[INPUT]  8 C     -0.494293577861  -1.767636860477   4.856584245874 AA   -0.934079487288  -3.340349553988   9.177614125580 Bohr
[INPUT]  9 H      1.741376098672   1.522122130924   6.242893110315 AA    3.290723906353   2.876393955585  11.797358203429 Bohr
[INPUT] 10 H     -0.737252165038   1.067406223183   9.756113344475 AA   -1.393204676665   2.017105425471  18.436382261273 Bohr
[INPUT] 11 H     -1.917285415333  -0.875283817922   8.767163092853 AA   -3.623144337602  -1.654046697135  16.567537134887 Bohr
[INPUT] 12 H     -2.008079330955  -2.581709970213   6.249569119350 AA   -3.794719971906  -4.878724776762  11.809974032110 Bohr
[INPUT] 13 H      1.014056592313  -0.384191685626   4.236615719315 AA    1.916289234282  -0.726017065168   8.006043404533 Bohr
[INPUT] 14 C     -0.557752125446  -2.589895543981   3.649761569464 AA   -1.053998762488  -4.894193269355   6.897049786250 Bohr
[INPUT] 15 C      0.522808420425  -2.655925730991   2.741216161162 AA    0.987964730219  -5.018972238758   5.180147792827 Bohr
[INPUT] 16 C     -1.712728821248  -3.357824366907   3.361182303837 AA   -3.236588397808  -6.345368427845   6.351714008986 Bohr
[INPUT] 17 C      0.446385021821  -3.440781206494   1.586526814519 AA    0.843545437349  -6.502134134825   2.998101168719 Bohr
[INPUT] 18 H      1.453921720129  -2.119965640114   2.955536368338 AA    2.747513857600  -4.006154453304   5.585154287351 Bohr
[INPUT] 19 C     -1.783952934725  -4.145675429109   2.215566968501 AA   -3.371182465744  -7.834191162354   4.186814781100 Bohr
[INPUT] 20 H     -2.568709461173  -3.313409414253   4.041307802486 AA   -4.854157375195  -6.261436331494   7.636964931766 Bohr
[INPUT] 21 C     -0.710978769575  -4.190627729472   1.300522221802 AA   -1.343555154877  -7.919138698710   2.457630818116 Bohr
[INPUT] 22 H      1.317061131045  -3.500458017908   0.925181666946 AA    2.488884826984  -6.614906964384   1.748339965996 Bohr
[INPUT] 23 H     -2.671871176187  -4.742554801358   1.988979804092 AA   -5.049104763113  -8.962129705307   3.758627097025 Bohr
[INPUT] 24 N      0.425862906199  -0.730853282480   4.988072814994 AA    0.804764259328  -1.381112541126   9.426091509727 Bohr
[INPUT] 25 C      1.327700893572   2.546624539085   8.651818501414 AA    2.508991064192   4.812422920967  16.349567447117 Bohr
[INPUT] 26 N      1.182728397575   2.701831835728  10.029389761089 AA    2.235032751163   5.105722204156  18.952799844974 Bohr
[INPUT] 27 H      1.810584042570   3.373755406828  10.468612514296 AA    3.421507965966   6.375473730176  19.782810556213 Bohr
[INPUT] 28 H      1.059263901314   1.849625840311  10.575466067506 AA    2.001718667122   3.495286271106  19.984734507216 Bohr
[INPUT] 29 C     -0.836524172675  -5.045477146531   0.081581634857 AA   -1.580801582935  -9.534569974696   0.154166946675 Bohr
[INPUT] 30 N      0.098568638362  -4.790435984601  -0.919936674349 AA    0.186267730975  -9.052612028157  -1.738428366463 Bohr
[INPUT] 31 H     -0.074365914399  -5.245987413739  -1.815177570792 AA   -0.140531211217  -9.913479464882  -3.430188476251 Bohr
[INPUT] 32 H      0.416113085246  -3.826182945097  -1.016573952345 AA    0.786339767963  -7.230437868716  -1.921046355298 Bohr
[INPUT] 33 N      1.986640477268   3.335372576619   7.866707649649 AA    3.754206410012   6.302940693196  14.865922959858 Bohr
[INPUT] 34 H      2.469865074736   4.069338196547   8.407255436847 AA    4.667368555879   7.689934699705  15.887410234902 Bohr
[INPUT] 35 N     -1.740344179887  -5.968771427162   0.063861947201 AA   -3.288773862467 -11.279343297466   0.120681589992 Bohr
[INPUT] 36 H     -1.740732288256  -6.466875872094  -0.839626730885 AA   -3.289507280992 -12.220624279815  -1.586664568236 Bohr
[INPUT] ---------------- BASIS SET ---------------- 
[INPUT] l, kappa, [nprim/nctr], expnt,             c_1 c_2 ...
[INPUT] C
[INPUT] 0    0    [6    /1   ]  13575.349682      0.00022245814352
                                2035.233368       0.0017232738252
                                463.22562359      0.0089255715314
                                131.20019598      0.035727984502
                                42.853015891      0.11076259931
                                15.584185766      0.24295627626
[INPUT] 0    0    [2    /1   ]  6.2067138508      0.41440263448
                                2.5764896527      0.23744968655
[INPUT] 0    0    [1    /1   ]  0.57696339419        1
[INPUT] 0    0    [1    /1   ]  0.22972831358        1
[INPUT] 0    0    [1    /1   ]  0.095164440028       1
[INPUT] 1    0    [4    /1   ]  34.697232244      0.0053333657805
                                7.9582622826      0.035864109092
                                2.3780826883      0.14215873329
                                0.81433208183     0.34270471845
[INPUT] 1    0    [1    /1   ]  0.28887547253        1
[INPUT] 1    0    [1    /1   ]  0.10056823671        1
[INPUT] 2    0    [1    /1   ]  1.097                1
[INPUT] 2    0    [1    /1   ]  0.318                1
[INPUT] 3    0    [1    /1   ]  0.761                1
[INPUT] H
[INPUT] 0    0    [3    /1   ]  34.061341         0.0060251978
                                5.1235746         0.045021094
                                1.1646626         0.20189726
[INPUT] 0    0    [1    /1   ]  0.32723041           1
[INPUT] 0    0    [1    /1   ]  0.10307241           1
[INPUT] 1    0    [1    /1   ]  0.8                  1
[INPUT] N
[INPUT] 0    0    [6    /1   ]  19730.800647      0.00021887984991
                                2957.8958745      0.0016960708803
                                673.22133595      0.0087954603538
                                190.68249494      0.035359382605
                                62.295441898      0.11095789217
                                22.654161182      0.24982972552
[INPUT] 0    0    [2    /1   ]  8.9791477428      0.40623896148
                                3.686300237       0.24338217176
[INPUT] 0    0    [1    /1   ]  0.84660076805        1
[INPUT] 0    0    [1    /1   ]  0.33647133771        1
[INPUT] 0    0    [1    /1   ]  0.13647653675        1
[INPUT] 1    0    [4    /1   ]  49.20038051       0.0055552416751
                                11.346790537      0.038052379723
                                3.4273972411      0.14953671029
                                1.1785525134      0.3494930523
[INPUT] 1    0    [1    /1   ]  0.41642204972        1
[INPUT] 1    0    [1    /1   ]  0.14260826011        1
[INPUT] 2    0    [1    /1   ]  1.654                1
[INPUT] 2    0    [1    /1   ]  0.469                1
[INPUT] 3    0    [1    /1   ]  1.093                1

nuclear repulsion = 1437.09149164036
number of shells = 291
number of NR pGTOs = 1086
number of NR cGTOs = 741
basis = def2-tzvp
ecp = {}
CPU time:         2.71
RKS
Density fitting turned on
Molecule built
Calculating SCF Energy...


******** <class 'pyscf.df.df_jk.density_fit.<locals>.DFHF'> ********
method = DFHF-RKS-RHF
initial guess = chkfile
damping factor = 0
level_shift factor = 0
DIIS = <class 'pyscf.scf.diis.CDIIS'>
diis_start_cycle = 1
diis_space = 8
SCF conv_tol = 1e-10
SCF conv_tol_grad = None
SCF max_cycles = 50
direct_scf = True
direct_scf_tol = 1e-13
chkfile to save SCF result = 36_DAPI_pbe0.chk
max_memory 50000 MB (current use 55 MB)
XC functionals = pbe0
small_rho_cutoff = 1e-07
radial grids: 
    Treutler-Ahlrichs [JCP 102, 346 (1995); DOI:10.1063/1.469408] (M4) radial grids
    
becke partition: Becke, JCP 88, 2547 (1988); DOI:10.1063/1.454033
pruning grids: <function nwchem_prune at 0x7f7cee7a1e18>
grids dens level: 3
symmetrized grids: False
atomic radii adjust function: <function treutler_atomic_radii_adjust at 0x7f7cee7a1d90>
Set gradient conv threshold to 1e-05
atom C rad-grids = 75, ang-grids = [ 50  50  50  50  50  50  50  50  50  50  50  50  50  50  50  50  50  50
  50  50  50  50  50  86  86  86  86  86  86  86  86  86  86 266 266 266
 266 266 266 266 302 302 302 302 302 302 302 302 302 302 302 302 302 302
 302 302 302 302 302 302 266 266 266 266 266 266 266 266 266 266 266 266
 266 266 266]
atom H rad-grids = 50, ang-grids = [ 50  50  50  50  50  50  50  50  50  50  50  50  50  50  86  86  86  86
 266 266 266 266 302 302 302 302 302 302 302 302 302 302 302 302 302 266
 266 266 266 266 266 266 266 266 266 266 266 266 266 266]
atom N rad-grids = 75, ang-grids = [ 50  50  50  50  50  50  50  50  50  50  50  50  50  50  50  50  50  50
  50  50  50  50  50  86  86  86  86  86  86  86  86  86 266 266 266 266
 266 266 266 302 302 302 302 302 302 302 302 302 302 302 302 302 302 302
 302 302 302 302 266 266 266 266 266 266 266 266 266 266 266 266 266 266
 266 266 266]
tot grids = 443022
Drop grids 74818
    CPU time for setting up grids     44.79 sec, wall time      2.57 sec
nelec by numeric integration = 145.99997236501042
    CPU time for vxc     92.43 sec, wall time      5.49 sec
******** <class 'pyscf.df.df.DF'> ********
auxbasis = None
max_memory = 50000
_cderi_to_save = /tmp/job.16219508.hpc/tmpsogc9gmw
Default auxbasis def2-tzvp-jkfit is used for C def2-tzvp
Default auxbasis def2-tzvp-jkfit is used for H def2-tzvp
Default auxbasis def2-tzvp-jkfit is used for N def2-tzvp
num shells = 615, num cGTOs = 1855
size of aux basis 1855
int3c2e [1/1], AO [0:291], nrow = 274911
    CPU time for cholesky_eri     72.99 sec, wall time     11.60 sec
    CPU time for df vj and vk    194.21 sec, wall time     19.38 sec
E1 = -4061.7689992282644  Ecoul = 1858.832816385913  Exc = -125.95195373683627
init E= -891.796644938825
cond(S) = 1356611.8261354011
    CPU time for initialize scf    336.63 sec, wall time     27.88 sec
  HOMO = -0.212625217434489  LUMO = -0.0639623201077949
  mo_energy =
[-1.44351957e+01 -1.44081956e+01 -1.43992367e+01 -1.43521340e+01
 -1.43419859e+01 -1.03061356e+01 -1.02967886e+01 -1.02774382e+01
 -1.02661209e+01 -1.02603291e+01 -1.02497667e+01 -1.02472219e+01
 -1.02464681e+01 -1.02409425e+01 -1.02380617e+01 -1.02373020e+01
 -1.02351528e+01 -1.02312369e+01 -1.02300975e+01 -1.02289399e+01
 -1.02252041e+01 -1.01293366e+00 -9.79550115e-01 -9.70064965e-01
 -8.93622869e-01 -8.76236874e-01 -8.71183765e-01 -8.62608482e-01
 -8.17965462e-01 -8.00056925e-01 -7.79009292e-01 -7.59224428e-01
 -7.45562381e-01 -6.85661529e-01 -6.44121503e-01 -6.40840676e-01
 -6.33377763e-01 -6.08515452e-01 -5.94207989e-01 -5.79265436e-01
 -5.66734420e-01 -5.52906280e-01 -5.38549857e-01 -5.32444491e-01
 -5.15030167e-01 -4.97029058e-01 -4.91422307e-01 -4.79820029e-01
 -4.70163540e-01 -4.55862231e-01 -4.49069310e-01 -4.45791042e-01
 -4.40732439e-01 -4.38994744e-01 -4.26470082e-01 -4.16766016e-01
 -4.07816036e-01 -4.01784133e-01 -3.82397644e-01 -3.80484060e-01
 -3.74596632e-01 -3.61381275e-01 -3.51944038e-01 -3.45781334e-01
 -3.04214834e-01 -2.90240195e-01 -2.85387213e-01 -2.80401202e-01
 -2.78962075e-01 -2.62939096e-01 -2.55877983e-01 -2.36667061e-01
 -2.12625217e-01 -6.39623201e-02 -2.36091355e-02 -1.72716654e-02
  4.11893782e-04  2.46797076e-02  3.22668670e-02  3.57554067e-02
  4.10958296e-02  6.58582314e-02  6.97881213e-02  7.22713179e-02
  7.36383336e-02  8.41473831e-02  8.65309755e-02  9.33687762e-02
  1.05256260e-01  1.08469634e-01  1.12863492e-01  1.18981669e-01
  1.22845184e-01  1.31581812e-01  1.40182749e-01  1.45121185e-01
  1.54494336e-01  1.64282968e-01  1.67445223e-01  1.71495835e-01
  1.81014162e-01  1.85751785e-01  1.89403283e-01  1.99284426e-01
  2.02544482e-01  2.13576766e-01  2.16171715e-01  2.23146365e-01
  2.25044619e-01  2.28549926e-01  2.34138986e-01  2.37210290e-01
  2.40054306e-01  2.45330983e-01  2.47827546e-01  2.59212815e-01
  2.62515559e-01  2.64714942e-01  2.65579864e-01  2.69553696e-01
  2.73961966e-01  2.84365693e-01  2.89067056e-01  2.91698671e-01
  2.95451577e-01  3.03896050e-01  3.10026059e-01  3.12313733e-01
  3.20040460e-01  3.23432836e-01  3.32031424e-01  3.33354658e-01
  3.40998629e-01  3.42718016e-01  3.50597140e-01  3.51148486e-01
  3.54896241e-01  3.57354542e-01  3.64448658e-01  3.68333157e-01
  3.72997002e-01  3.74368787e-01  3.78558329e-01  3.84802511e-01
  3.86518918e-01  3.91115841e-01  3.94216302e-01  3.99089742e-01
  4.08752522e-01  4.11286508e-01  4.13933610e-01  4.19428262e-01
  4.24947982e-01  4.25181410e-01  4.28173117e-01  4.38043150e-01
  4.42528322e-01  4.48677338e-01  4.51392040e-01  4.52958675e-01
  4.64620169e-01  4.67103187e-01  4.68463377e-01  4.69655003e-01
  4.76425582e-01  4.86385152e-01  4.89324759e-01  4.94590071e-01
  4.97801346e-01  5.01471907e-01  5.03151110e-01  5.11985874e-01
  5.15581748e-01  5.25617664e-01  5.28243591e-01  5.34156748e-01
  5.37039488e-01  5.45472493e-01  5.48308482e-01  5.56439243e-01
  5.65005351e-01  5.72500587e-01  5.81321811e-01  5.85980585e-01
  5.92269171e-01  6.02009343e-01  6.06944558e-01  6.14591740e-01
  6.20966663e-01  6.25162271e-01  6.29548036e-01  6.31773564e-01
  6.40667465e-01  6.46894547e-01  6.53804116e-01  6.59817459e-01
  6.62640881e-01  6.68556433e-01  6.75719736e-01  6.79812180e-01
  6.86377012e-01  6.89208391e-01  6.96877170e-01  7.02927549e-01
  7.08795007e-01  7.10969096e-01  7.16323449e-01  7.23078885e-01
  7.26200375e-01  7.40390313e-01  7.41358942e-01  7.48028787e-01
  7.56063934e-01  7.60417129e-01  7.67910647e-01  7.71809382e-01
  7.73165252e-01  7.77232338e-01  7.92176206e-01  7.97639117e-01
  8.06250026e-01  8.12429072e-01  8.16088000e-01  8.23855315e-01
  8.35199790e-01  8.43220464e-01  8.46620566e-01  8.58264118e-01
  8.63080716e-01  8.65804355e-01  8.77073684e-01  8.84362761e-01
  8.94681052e-01  9.14639833e-01  9.16103264e-01  9.21503571e-01
  9.23780622e-01  9.41504311e-01  9.48430780e-01  9.51690335e-01
  9.59076251e-01  9.75623539e-01  9.77095845e-01  9.88062463e-01
  1.00192542e+00  1.01585194e+00  1.03073179e+00  1.04111523e+00
  1.05378570e+00  1.05499324e+00  1.06367783e+00  1.07441703e+00
  1.07680320e+00  1.08999050e+00  1.09735594e+00  1.10146810e+00
  1.10861475e+00  1.11928234e+00  1.12389926e+00  1.13835880e+00
  1.14624777e+00  1.15706227e+00  1.16821274e+00  1.17630202e+00
  1.19842408e+00  1.20547696e+00  1.21134242e+00  1.21334525e+00
  1.22903038e+00  1.23422493e+00  1.23917693e+00  1.25165992e+00
  1.25439424e+00  1.26328007e+00  1.26951506e+00  1.27800669e+00
  1.28212845e+00  1.28913756e+00  1.29896489e+00  1.30147046e+00
  1.30354998e+00  1.31453537e+00  1.31623546e+00  1.31827480e+00
  1.33238852e+00  1.34278841e+00  1.35579782e+00  1.36294365e+00
  1.36746892e+00  1.38001218e+00  1.38336411e+00  1.39888781e+00
  1.40753504e+00  1.41443363e+00  1.42795318e+00  1.44197060e+00
  1.45291232e+00  1.45562004e+00  1.46375370e+00  1.46820120e+00
  1.48507316e+00  1.48859806e+00  1.49225636e+00  1.50079002e+00
  1.50638634e+00  1.51304009e+00  1.51498546e+00  1.52394493e+00
  1.52924591e+00  1.53191631e+00  1.54215343e+00  1.54893704e+00
  1.55527705e+00  1.56679531e+00  1.56946771e+00  1.57985139e+00
  1.59048583e+00  1.59717106e+00  1.59957572e+00  1.60295196e+00
  1.60908555e+00  1.61236597e+00  1.61814126e+00  1.63520543e+00
  1.63793216e+00  1.64969616e+00  1.65362379e+00  1.66034687e+00
  1.67323876e+00  1.68150871e+00  1.69420585e+00  1.69978926e+00
  1.70322054e+00  1.70854664e+00  1.71719320e+00  1.72755134e+00
  1.73177384e+00  1.73689621e+00  1.75169024e+00  1.76079982e+00
  1.78066602e+00  1.78910012e+00  1.79176349e+00  1.80043442e+00
  1.80604731e+00  1.81454141e+00  1.82361884e+00  1.83481300e+00
  1.84428705e+00  1.85806876e+00  1.86748431e+00  1.87488404e+00
  1.88221968e+00  1.88627365e+00  1.89609644e+00  1.90388957e+00
  1.91338642e+00  1.92092901e+00  1.94017603e+00  1.95492080e+00
  1.95885935e+00  1.97753171e+00  1.98555017e+00  1.99655948e+00
  2.00183326e+00  2.00978804e+00  2.01778456e+00  2.02032013e+00
  2.02380992e+00  2.02721613e+00  2.03472796e+00  2.04814639e+00
  2.05359823e+00  2.05942431e+00  2.06327051e+00  2.06945672e+00
  2.08117155e+00  2.09040468e+00  2.09814317e+00  2.10386755e+00
  2.12229038e+00  2.13300865e+00  2.14322170e+00  2.15001509e+00
  2.16067034e+00  2.16761229e+00  2.17907670e+00  2.19576143e+00
  2.20645462e+00  2.22393642e+00  2.23475666e+00  2.25317423e+00
  2.26963970e+00  2.27273067e+00  2.28532519e+00  2.28786536e+00
  2.29524464e+00  2.30300646e+00  2.31074649e+00  2.32044843e+00
  2.33296295e+00  2.34014306e+00  2.35176023e+00  2.35881028e+00
  2.37426782e+00  2.37773571e+00  2.39077435e+00  2.39824300e+00
  2.41022104e+00  2.41813593e+00  2.43091680e+00  2.45688916e+00
  2.46271300e+00  2.47088248e+00  2.48450315e+00  2.49601550e+00
  2.50664490e+00  2.51501680e+00  2.53816334e+00  2.54205481e+00
  2.56217035e+00  2.56244310e+00  2.56728707e+00  2.57793634e+00
  2.58276832e+00  2.59058607e+00  2.60170299e+00  2.60782820e+00
  2.60907163e+00  2.61595606e+00  2.63806960e+00  2.64772389e+00
  2.65281294e+00  2.66277638e+00  2.67110762e+00  2.68143998e+00
  2.68350476e+00  2.69270346e+00  2.70054410e+00  2.71117324e+00
  2.72479420e+00  2.73165044e+00  2.73466089e+00  2.73813142e+00
  2.74905147e+00  2.75436618e+00  2.76987523e+00  2.77121971e+00
  2.78042475e+00  2.78399434e+00  2.79663311e+00  2.81100257e+00
  2.81464758e+00  2.81994126e+00  2.82588940e+00  2.83324675e+00
  2.83694300e+00  2.83911749e+00  2.85498212e+00  2.86138002e+00
  2.86591153e+00  2.87649331e+00  2.87779781e+00  2.88883241e+00
  2.89303320e+00  2.89980015e+00  2.90722846e+00  2.91770322e+00
  2.93293556e+00  2.93824511e+00  2.94526439e+00  2.94860064e+00
  2.95603526e+00  2.96016243e+00  2.97204685e+00  2.97881487e+00
  2.99191949e+00  2.99612181e+00  3.01048177e+00  3.01433899e+00
  3.02295368e+00  3.03352039e+00  3.03915414e+00  3.04489609e+00
  3.05261136e+00  3.05837228e+00  3.06539390e+00  3.07214747e+00
  3.08626261e+00  3.09956876e+00  3.10411843e+00  3.11430215e+00
  3.12631253e+00  3.13524314e+00  3.14036127e+00  3.14378282e+00
  3.15144747e+00  3.15570649e+00  3.16124650e+00  3.16359065e+00
  3.17120241e+00  3.17920329e+00  3.18079745e+00  3.18893920e+00
  3.19268963e+00  3.19996992e+00  3.20068008e+00  3.20298007e+00
  3.21642822e+00  3.21799685e+00  3.23436904e+00  3.24325930e+00
  3.24842976e+00  3.25577079e+00  3.25914055e+00  3.26428086e+00
  3.27253070e+00  3.27833513e+00  3.29133201e+00  3.29618503e+00
  3.30233459e+00  3.30581171e+00  3.31327836e+00  3.32723376e+00
  3.32863822e+00  3.34420784e+00  3.35428941e+00  3.35721180e+00
  3.36642956e+00  3.37259420e+00  3.38068134e+00  3.38263946e+00
  3.39230524e+00  3.40064836e+00  3.40510319e+00  3.41373492e+00
  3.42329361e+00  3.42813933e+00  3.43789125e+00  3.44092466e+00
  3.44850338e+00  3.45505669e+00  3.46227786e+00  3.46803472e+00
  3.47325163e+00  3.48023346e+00  3.48597064e+00  3.49028167e+00
  3.49805716e+00  3.50729618e+00  3.51623157e+00  3.52248020e+00
  3.53825508e+00  3.54517535e+00  3.54994990e+00  3.55938580e+00
  3.56953293e+00  3.58163453e+00  3.58736380e+00  3.60253290e+00
  3.61086616e+00  3.61524411e+00  3.62633335e+00  3.63489527e+00
  3.64791284e+00  3.66693673e+00  3.69701733e+00  3.71203644e+00
  3.71959762e+00  3.72782844e+00  3.74880257e+00  3.75793047e+00
  3.76044902e+00  3.77101475e+00  3.78386205e+00  3.79826603e+00
  3.80768626e+00  3.82551138e+00  3.82983744e+00  3.83473396e+00
  3.85415120e+00  3.86302496e+00  3.86778766e+00  3.87964588e+00
  3.88529536e+00  3.90523850e+00  3.92744732e+00  3.94050798e+00
  3.97101133e+00  3.97743972e+00  3.99152955e+00  3.99756973e+00
  4.02035979e+00  4.03391729e+00  4.04578437e+00  4.05048630e+00
  4.08191479e+00  4.10262327e+00  4.11332287e+00  4.12176303e+00
  4.13322255e+00  4.13513079e+00  4.15771061e+00  4.17669708e+00
  4.18372307e+00  4.19149894e+00  4.20176351e+00  4.21033793e+00
  4.22353198e+00  4.23439228e+00  4.23890744e+00  4.25064270e+00
  4.26210050e+00  4.26782730e+00  4.27090098e+00  4.29099838e+00
  4.30687684e+00  4.30976685e+00  4.32302930e+00  4.32839651e+00
  4.34129769e+00  4.34835547e+00  4.36602055e+00  4.37044637e+00
  4.38221868e+00  4.40413757e+00  4.41275431e+00  4.41719543e+00
  4.42451497e+00  4.47913452e+00  4.50099810e+00  4.50764194e+00
  4.53463444e+00  4.55694263e+00  4.56596481e+00  4.57112591e+00
  4.58095089e+00  4.59951240e+00  4.60670195e+00  4.61413970e+00
  4.63807149e+00  4.66341288e+00  4.67901565e+00  4.69228509e+00
  4.70237449e+00  4.72123209e+00  4.72595858e+00  4.73375930e+00
  4.74804276e+00  4.76579021e+00  4.77223492e+00  4.80097773e+00
  4.80882689e+00  4.82913183e+00  4.83329628e+00  4.84071454e+00
  4.85566480e+00  4.86004989e+00  4.86762196e+00  4.87139410e+00
  4.90136912e+00  4.90646842e+00  4.91826377e+00  4.92335318e+00
  4.93208972e+00  4.95186165e+00  4.96299050e+00  4.98377258e+00
  5.00189982e+00  5.00384933e+00  5.04319421e+00  5.05111669e+00
  5.06295365e+00  5.07366803e+00  5.08953823e+00  5.10189875e+00
  5.12122187e+00  5.13644188e+00  5.15234409e+00  5.16445995e+00
  5.16770191e+00  5.17659616e+00  5.20757223e+00  5.20927875e+00
  5.22478094e+00  5.23948480e+00  5.24278641e+00  5.25415894e+00
  5.27657416e+00  5.28191992e+00  5.32555120e+00  5.33384892e+00
  5.35785068e+00  5.37172351e+00  5.38840537e+00  5.39451300e+00
  5.41701942e+00  5.43757301e+00  5.45061911e+00  5.48544036e+00
  5.51000116e+00  5.52172909e+00  5.53283574e+00  5.54777842e+00
  5.57615864e+00  5.58899401e+00  5.62369717e+00  5.64829558e+00
  5.71604927e+00  5.73824398e+00  5.74578325e+00  5.76590763e+00
  5.79903536e+00  5.89761590e+00  5.94653051e+00  5.95153746e+00
  6.05116894e+00  6.15748333e+00  6.21740204e+00  6.27706848e+00
  2.23887501e+01  2.25137990e+01  2.26573172e+01  2.27324475e+01
  2.27483833e+01  2.27855226e+01  2.27929391e+01  2.28745704e+01
  2.29005558e+01  2.29666981e+01  2.30717018e+01  2.31771371e+01
  2.32292481e+01  2.32905163e+01  2.34676351e+01  2.37172314e+01
  3.20488667e+01  3.20579423e+01  3.21510823e+01  3.21662500e+01
  3.25833928e+01]
nelec by numeric integration = 145.99997236496637
    CPU time for vxc     74.05 sec, wall time      4.39 sec
    CPU time for df vj and vk    122.10 sec, wall time      8.30 sec
E1 = -4061.7690057050386  Ecoul = 1858.832823044111  Exc = -125.95195391825516
cycle= 1 E= -891.796644938821  delta_E= 4.55e-12  |g|= 5.53e-06  |ddm|= 1.21e-05
    CPU time for cycle= 1    199.73 sec, wall time     13.06 sec
  HOMO = -0.212625120090125  LUMO = -0.0639621481784169
  mo_energy =
[-1.44351952e+01 -1.44081942e+01 -1.43992356e+01 -1.43521358e+01
 -1.43419855e+01 -1.03061363e+01 -1.02967887e+01 -1.02774352e+01
 -1.02661221e+01 -1.02603259e+01 -1.02497681e+01 -1.02472218e+01
 -1.02464667e+01 -1.02409418e+01 -1.02380620e+01 -1.02373033e+01
 -1.02351537e+01 -1.02312381e+01 -1.02300986e+01 -1.02289401e+01
 -1.02252047e+01 -1.01293317e+00 -9.79550261e-01 -9.70064709e-01
 -8.93622338e-01 -8.76237246e-01 -8.71183842e-01 -8.62608624e-01
 -8.17965204e-01 -8.00056818e-01 -7.79009058e-01 -7.59224747e-01
 -7.45562340e-01 -6.85661377e-01 -6.44121356e-01 -6.40840625e-01
 -6.33377729e-01 -6.08515300e-01 -5.94207839e-01 -5.79265460e-01
 -5.66734248e-01 -5.52906125e-01 -5.38549468e-01 -5.32444502e-01
 -5.15029966e-01 -4.97029096e-01 -4.91422241e-01 -4.79819843e-01
 -4.70163384e-01 -4.55862266e-01 -4.49069059e-01 -4.45791211e-01
 -4.40732360e-01 -4.38994732e-01 -4.26470074e-01 -4.16766176e-01
 -4.07816131e-01 -4.01784032e-01 -3.82397615e-01 -3.80483821e-01
 -3.74596530e-01 -3.61381024e-01 -3.51944460e-01 -3.45781390e-01
 -3.04214832e-01 -2.90240823e-01 -2.85387293e-01 -2.80401097e-01
 -2.78961879e-01 -2.62939263e-01 -2.55877861e-01 -2.36667224e-01
 -2.12625120e-01 -6.39621482e-02 -2.36090246e-02 -1.72716446e-02
  4.11628823e-04  2.46797371e-02  3.22670440e-02  3.57554817e-02
  4.10960256e-02  6.58582427e-02  6.97881616e-02  7.22713517e-02
  7.36383614e-02  8.41474726e-02  8.65309759e-02  9.33688538e-02
  1.05256201e-01  1.08469628e-01  1.12863564e-01  1.18981713e-01
  1.22845224e-01  1.31581783e-01  1.40182804e-01  1.45121380e-01
  1.54494420e-01  1.64282979e-01  1.67445149e-01  1.71495880e-01
  1.81014111e-01  1.85752027e-01  1.89403404e-01  1.99284524e-01
  2.02544592e-01  2.13576938e-01  2.16171807e-01  2.23146350e-01
  2.25044682e-01  2.28549950e-01  2.34138983e-01  2.37210392e-01
  2.40054390e-01  2.45331095e-01  2.47827599e-01  2.59212862e-01
  2.62515481e-01  2.64715010e-01  2.65579811e-01  2.69553687e-01
  2.73961977e-01  2.84365668e-01  2.89067041e-01  2.91698597e-01
  2.95451570e-01  3.03896063e-01  3.10026095e-01  3.12313772e-01
  3.20040554e-01  3.23432847e-01  3.32031446e-01  3.33354698e-01
  3.40998613e-01  3.42718080e-01  3.50597215e-01  3.51148491e-01
  3.54896317e-01  3.57354635e-01  3.64448725e-01  3.68333214e-01
  3.72996998e-01  3.74368856e-01  3.78558315e-01  3.84802493e-01
  3.86518974e-01  3.91115811e-01  3.94216421e-01  3.99089743e-01
  4.08752601e-01  4.11286704e-01  4.13933623e-01  4.19428310e-01
  4.24948048e-01  4.25181435e-01  4.28173199e-01  4.38043114e-01
  4.42528466e-01  4.48677369e-01  4.51391943e-01  4.52958723e-01
  4.64620245e-01  4.67103236e-01  4.68463394e-01  4.69654978e-01
  4.76425600e-01  4.86385294e-01  4.89324736e-01  4.94590092e-01
  4.97801444e-01  5.01471954e-01  5.03151115e-01  5.11985961e-01
  5.15581733e-01  5.25617721e-01  5.28243588e-01  5.34156843e-01
  5.37039579e-01  5.45472550e-01  5.48308439e-01  5.56439310e-01
  5.65005292e-01  5.72500643e-01  5.81321824e-01  5.85980550e-01
  5.92269244e-01  6.02009424e-01  6.06944624e-01  6.14591726e-01
  6.20966596e-01  6.25162464e-01  6.29548072e-01  6.31773658e-01
  6.40667393e-01  6.46894767e-01  6.53804205e-01  6.59817468e-01
  6.62640796e-01  6.68556435e-01  6.75719644e-01  6.79812251e-01
  6.86377012e-01  6.89208525e-01  6.96877436e-01  7.02927458e-01
  7.08795071e-01  7.10969081e-01  7.16323473e-01  7.23078819e-01
  7.26200611e-01  7.40390261e-01  7.41358950e-01  7.48028912e-01
  7.56064003e-01  7.60417118e-01  7.67910746e-01  7.71809330e-01
  7.73165209e-01  7.77232258e-01  7.92176243e-01  7.97639193e-01
  8.06250106e-01  8.12429155e-01  8.16088000e-01  8.23855422e-01
  8.35199871e-01  8.43220338e-01  8.46620578e-01  8.58264060e-01
  8.63080649e-01  8.65804349e-01  8.77073774e-01  8.84362792e-01
  8.94681107e-01  9.14639979e-01  9.16103480e-01  9.21503700e-01
  9.23780636e-01  9.41504371e-01  9.48430838e-01  9.51690287e-01
  9.59076240e-01  9.75623538e-01  9.77095804e-01  9.88062352e-01
  1.00192546e+00  1.01585199e+00  1.03073178e+00  1.04111530e+00
  1.05378582e+00  1.05499330e+00  1.06367783e+00  1.07441711e+00
  1.07680324e+00  1.08999042e+00  1.09735585e+00  1.10146804e+00
  1.10861481e+00  1.11928238e+00  1.12389930e+00  1.13835871e+00
  1.14624797e+00  1.15706233e+00  1.16821283e+00  1.17630210e+00
  1.19842404e+00  1.20547702e+00  1.21134236e+00  1.21334519e+00
  1.22903042e+00  1.23422501e+00  1.23917705e+00  1.25166003e+00
  1.25439427e+00  1.26328008e+00  1.26951507e+00  1.27800671e+00
  1.28212844e+00  1.28913753e+00  1.29896509e+00  1.30147045e+00
  1.30355002e+00  1.31453540e+00  1.31623548e+00  1.31827478e+00
  1.33238847e+00  1.34278847e+00  1.35579793e+00  1.36294381e+00
  1.36746909e+00  1.38001224e+00  1.38336436e+00  1.39888806e+00
  1.40753513e+00  1.41443373e+00  1.42795324e+00  1.44197055e+00
  1.45291228e+00  1.45562018e+00  1.46375363e+00  1.46820114e+00
  1.48507310e+00  1.48859803e+00  1.49225634e+00  1.50078984e+00
  1.50638639e+00  1.51303991e+00  1.51498537e+00  1.52394499e+00
  1.52924591e+00  1.53191646e+00  1.54215357e+00  1.54893703e+00
  1.55527701e+00  1.56679526e+00  1.56946789e+00  1.57985142e+00
  1.59048590e+00  1.59717127e+00  1.59957580e+00  1.60295181e+00
  1.60908558e+00  1.61236603e+00  1.61814121e+00  1.63520551e+00
  1.63793231e+00  1.64969629e+00  1.65362385e+00  1.66034702e+00
  1.67323872e+00  1.68150880e+00  1.69420582e+00  1.69978906e+00
  1.70322052e+00  1.70854674e+00  1.71719341e+00  1.72755135e+00
  1.73177392e+00  1.73689626e+00  1.75169031e+00  1.76079988e+00
  1.78066610e+00  1.78910008e+00  1.79176359e+00  1.80043454e+00
  1.80604728e+00  1.81454143e+00  1.82361886e+00  1.83481323e+00
  1.84428725e+00  1.85806884e+00  1.86748428e+00  1.87488402e+00
  1.88221945e+00  1.88627400e+00  1.89609655e+00  1.90388956e+00
  1.91338659e+00  1.92092911e+00  1.94017610e+00  1.95492098e+00
  1.95885930e+00  1.97753150e+00  1.98555005e+00  1.99655946e+00
  2.00183331e+00  2.00978812e+00  2.01778466e+00  2.02032016e+00
  2.02380973e+00  2.02721615e+00  2.03472791e+00  2.04814658e+00
  2.05359824e+00  2.05942460e+00  2.06327069e+00  2.06945661e+00
  2.08117153e+00  2.09040483e+00  2.09814332e+00  2.10386798e+00
  2.12229028e+00  2.13300866e+00  2.14322187e+00  2.15001527e+00
  2.16067016e+00  2.16761254e+00  2.17907671e+00  2.19576128e+00
  2.20645472e+00  2.22393648e+00  2.23475694e+00  2.25317433e+00
  2.26963976e+00  2.27273064e+00  2.28532498e+00  2.28786541e+00
  2.29524462e+00  2.30300638e+00  2.31074641e+00  2.32044852e+00
  2.33296306e+00  2.34014294e+00  2.35176009e+00  2.35881034e+00
  2.37426799e+00  2.37773569e+00  2.39077400e+00  2.39824307e+00
  2.41022125e+00  2.41813618e+00  2.43091693e+00  2.45688910e+00
  2.46271316e+00  2.47088246e+00  2.48450322e+00  2.49601536e+00
  2.50664496e+00  2.51501705e+00  2.53816339e+00  2.54205483e+00
  2.56217055e+00  2.56244321e+00  2.56728734e+00  2.57793643e+00
  2.58276831e+00  2.59058616e+00  2.60170316e+00  2.60782819e+00
  2.60907160e+00  2.61595616e+00  2.63806951e+00  2.64772400e+00
  2.65281296e+00  2.66277640e+00  2.67110753e+00  2.68144006e+00
  2.68350481e+00  2.69270374e+00  2.70054415e+00  2.71117333e+00
  2.72479445e+00  2.73165054e+00  2.73466094e+00  2.73813158e+00
  2.74905140e+00  2.75436633e+00  2.76987501e+00  2.77121967e+00
  2.78042471e+00  2.78399442e+00  2.79663320e+00  2.81100252e+00
  2.81464768e+00  2.81994126e+00  2.82588941e+00  2.83324675e+00
  2.83694304e+00  2.83911759e+00  2.85498216e+00  2.86138015e+00
  2.86591162e+00  2.87649325e+00  2.87779786e+00  2.88883245e+00
  2.89303308e+00  2.89980006e+00  2.90722831e+00  2.91770318e+00
  2.93293533e+00  2.93824499e+00  2.94526450e+00  2.94860073e+00
  2.95603513e+00  2.96016256e+00  2.97204685e+00  2.97881481e+00
  2.99191942e+00  2.99612173e+00  3.01048169e+00  3.01433914e+00
  3.02295372e+00  3.03352033e+00  3.03915421e+00  3.04489618e+00
  3.05261135e+00  3.05837225e+00  3.06539409e+00  3.07214745e+00
  3.08626274e+00  3.09956875e+00  3.10411852e+00  3.11430239e+00
  3.12631258e+00  3.13524318e+00  3.14036126e+00  3.14378282e+00
  3.15144753e+00  3.15570655e+00  3.16124671e+00  3.16359077e+00
  3.17120248e+00  3.17920319e+00  3.18079762e+00  3.18893928e+00
  3.19268968e+00  3.19996987e+00  3.20068007e+00  3.20298000e+00
  3.21642815e+00  3.21799685e+00  3.23436898e+00  3.24325937e+00
  3.24842963e+00  3.25577078e+00  3.25914059e+00  3.26428108e+00
  3.27253075e+00  3.27833514e+00  3.29133181e+00  3.29618507e+00
  3.30233472e+00  3.30581170e+00  3.31327849e+00  3.32723377e+00
  3.32863811e+00  3.34420780e+00  3.35428944e+00  3.35721184e+00
  3.36642947e+00  3.37259408e+00  3.38068129e+00  3.38263951e+00
  3.39230530e+00  3.40064839e+00  3.40510332e+00  3.41373481e+00
  3.42329375e+00  3.42813950e+00  3.43789128e+00  3.44092460e+00
  3.44850328e+00  3.45505662e+00  3.46227794e+00  3.46803475e+00
  3.47325177e+00  3.48023356e+00  3.48597066e+00  3.49028176e+00
  3.49805736e+00  3.50729624e+00  3.51623158e+00  3.52248028e+00
  3.53825512e+00  3.54517529e+00  3.54995001e+00  3.55938583e+00
  3.56953291e+00  3.58163461e+00  3.58736377e+00  3.60253286e+00
  3.61086617e+00  3.61524419e+00  3.62633320e+00  3.63489563e+00
  3.64791287e+00  3.66693673e+00  3.69701738e+00  3.71203639e+00
  3.71959763e+00  3.72782847e+00  3.74880253e+00  3.75793033e+00
  3.76044896e+00  3.77101491e+00  3.78386196e+00  3.79826620e+00
  3.80768628e+00  3.82551144e+00  3.82983734e+00  3.83473380e+00
  3.85415111e+00  3.86302506e+00  3.86778759e+00  3.87964598e+00
  3.88529547e+00  3.90523857e+00  3.92744739e+00  3.94050783e+00
  3.97101138e+00  3.97743978e+00  3.99152954e+00  3.99756998e+00
  4.02035993e+00  4.03391700e+00  4.04578432e+00  4.05048657e+00
  4.08191482e+00  4.10262316e+00  4.11332269e+00  4.12176333e+00
  4.13322263e+00  4.13513112e+00  4.15771082e+00  4.17669720e+00
  4.18372296e+00  4.19149932e+00  4.20176349e+00  4.21033786e+00
  4.22353171e+00  4.23439223e+00  4.23890725e+00  4.25064307e+00
  4.26210078e+00  4.26782726e+00  4.27090103e+00  4.29099828e+00
  4.30687680e+00  4.30976672e+00  4.32302932e+00  4.32839662e+00
  4.34129772e+00  4.34835540e+00  4.36602051e+00  4.37044641e+00
  4.38221872e+00  4.40413751e+00  4.41275433e+00  4.41719566e+00
  4.42451516e+00  4.47913457e+00  4.50099839e+00  4.50764188e+00
  4.53463441e+00  4.55694271e+00  4.56596492e+00  4.57112588e+00
  4.58095099e+00  4.59951252e+00  4.60670194e+00  4.61413955e+00
  4.63807179e+00  4.66341308e+00  4.67901518e+00  4.69228518e+00
  4.70237435e+00  4.72123230e+00  4.72595863e+00  4.73375934e+00
  4.74804278e+00  4.76579044e+00  4.77223474e+00  4.80097796e+00
  4.80882726e+00  4.82913193e+00  4.83329644e+00  4.84071470e+00
  4.85566494e+00  4.86005009e+00  4.86762198e+00  4.87139430e+00
  4.90136932e+00  4.90646864e+00  4.91826369e+00  4.92335350e+00
  4.93209009e+00  4.95186171e+00  4.96299040e+00  4.98377271e+00
  5.00189986e+00  5.00384926e+00  5.04319424e+00  5.05111697e+00
  5.06295383e+00  5.07366809e+00  5.08953836e+00  5.10189879e+00
  5.12122175e+00  5.13644219e+00  5.15234416e+00  5.16446001e+00
  5.16770205e+00  5.17659633e+00  5.20757241e+00  5.20927857e+00
  5.22478118e+00  5.23948512e+00  5.24278642e+00  5.25415908e+00
  5.27657430e+00  5.28192008e+00  5.32555126e+00  5.33384898e+00
  5.35785040e+00  5.37172355e+00  5.38840518e+00  5.39451302e+00
  5.41701955e+00  5.43757295e+00  5.45061908e+00  5.48544034e+00
  5.51000124e+00  5.52172909e+00  5.53283588e+00  5.54777828e+00
  5.57615878e+00  5.58899397e+00  5.62369748e+00  5.64829590e+00
  5.71604938e+00  5.73824405e+00  5.74578315e+00  5.76590806e+00
  5.79903549e+00  5.89761620e+00  5.94653059e+00  5.95153775e+00
  6.05116949e+00  6.15748327e+00  6.21740187e+00  6.27706859e+00
  2.23887501e+01  2.25137985e+01  2.26573172e+01  2.27324479e+01
  2.27483838e+01  2.27855219e+01  2.27929388e+01  2.28745698e+01
  2.29005562e+01  2.29666978e+01  2.30717014e+01  2.31771369e+01
  2.32292480e+01  2.32905168e+01  2.34676361e+01  2.37172309e+01
  3.20488676e+01  3.20579432e+01  3.21510811e+01  3.21662503e+01
  3.25833933e+01]
nelec by numeric integration = 145.99997236504151
    CPU time for vxc     71.36 sec, wall time      4.16 sec
    CPU time for df vj and vk    122.40 sec, wall time      8.25 sec
E1 = -4061.7689863410696  Ecoul = 1858.8328033138966  Exc = -125.95195355198088
Extra cycle  E= -891.796644938792  delta_E= 2.91e-11  |g|= 1.15e-05  |ddm|= 2.51e-05
    CPU time for scf_cycle    735.45 sec, wall time     53.87 sec
    CPU time for SCF    735.45 sec, wall time     53.87 sec
converged SCF energy = -891.796644938792
SCF Done after 53.89 seconds
after SCF memory used: 4.65 GB
Converting <class 'pyscf.df.df_jk.density_fit.<locals>.DFHF'> to RHF
Converting <class 'pyscf.df.df_jk.density_fit.<locals>.DFHF'> to RHF
hdiag shape (48764,)
n_occ =  73
n_vir =  668
max_vir =  200
A_size =  48764
A_reduced_size = 14600
a_x = 0.25
beta = 0.6575
alpha = 1.54
Q-Gamma tensors building time = 0.30
after Q matrix memory used: 4.82 GB
TDDFT
|-------- In-house Developed TDDFT Starts ---------|
Residual conv = 1e-05

Number of excited states = 1
Initial guess:   sTDDFT
Preconditioner:  sTDDFT
A matrix size =  48764
setting initial guess
sTDDFT Convergence tol = 1.00e-03
sTDDFT diagonalization Converged
after  6 iterations; 0.3914 seconds
final subspace 13
max_norm =  5.97e-04
MVcost     0.2435s 62.22%
GScost     0.0537s 13.71%
subgencost 0.0467s 11.92%
subcost    0.0040s 1.03%
sTDDFT excitation energy:
[3.31193643 3.77719366]
new_m = 2
initial guess done

iteration 0
beginning of step 0 memory used: 4.83 GB
    CPU time for df vj and vk    249.18 sec, wall time     15.98 sec
subspace size: 2
Maximum residual norm:  9.41e-02
unconverged states [0]
sTDDFT_preconditioner conv 0.01
sTDDFT preconditioning Done
after 7 steps; 0.2069 s
final subspace 7
max_norm =  4.53e-03
initial_cost 0.0062s  2.99%
MVcost     0.1276s  61.65%
GScost     0.0213s  10.31%
subgencost 0.0321s  15.50%
subcost    0.0040s  1.93%
m & new_m 2 3

iteration 1
beginning of step 1 memory used: 4.85 GB
    CPU time for df vj and vk    122.07 sec, wall time      8.26 sec
subspace size: 3
Maximum residual norm:  2.02e-02
unconverged states [0]
sTDDFT_preconditioner conv 0.01
sTDDFT preconditioning Done
after 8 steps; 0.2324 s
final subspace 8
max_norm =  8.03e-03
initial_cost 0.0037s  1.60%
MVcost     0.1391s  59.83%
GScost     0.0259s  11.12%
subgencost 0.0402s  17.30%
subcost    0.0046s  1.97%
m & new_m 3 4

iteration 2
beginning of step 2 memory used: 4.87 GB
    CPU time for df vj and vk    124.21 sec, wall time      8.56 sec
subspace size: 4
Maximum residual norm:  7.06e-03
unconverged states [0]
sTDDFT_preconditioner conv 0.01
sTDDFT preconditioning Done
after 8 steps; 0.2388 s
final subspace 8
max_norm =  4.29e-03
initial_cost 0.0032s  1.33%
MVcost     0.1452s  60.81%
GScost     0.0260s  10.88%
subgencost 0.0404s  16.91%
subcost    0.0046s  1.94%
m & new_m 4 5

iteration 3
beginning of step 3 memory used: 4.87 GB
    CPU time for df vj and vk    122.26 sec, wall time      8.31 sec
subspace size: 5
Maximum residual norm:  2.28e-03
unconverged states [0]
sTDDFT_preconditioner conv 0.01
sTDDFT preconditioning Done
after 8 steps; 0.2265 s
final subspace 8
max_norm =  5.25e-03
initial_cost 0.0033s  1.48%
MVcost     0.1324s  58.45%
GScost     0.0262s  11.59%
subgencost 0.0407s  17.98%
subcost    0.0045s  2.00%
m & new_m 5 6

iteration 4
beginning of step 4 memory used: 4.87 GB
    CPU time for df vj and vk    120.43 sec, wall time      7.14 sec
subspace size: 6
Maximum residual norm:  7.15e-04
unconverged states [0]
sTDDFT_preconditioner conv 0.01
sTDDFT preconditioning Done
after 8 steps; 0.2263 s
final subspace 8
max_norm =  5.56e-03
initial_cost 0.0037s  1.63%
MVcost     0.1346s  59.47%
GScost     0.0253s  11.20%
subgencost 0.0394s  17.42%
subcost    0.0045s  2.00%
m & new_m 6 7

iteration 5
beginning of step 5 memory used: 4.87 GB
    CPU time for df vj and vk    121.56 sec, wall time      8.16 sec
subspace size: 7
Maximum residual norm:  2.36e-04
unconverged states [0]
sTDDFT_preconditioner conv 0.01
sTDDFT preconditioning Done
after 7 steps; 0.2033 s
final subspace 7
max_norm =  8.82e-03
initial_cost 0.0036s  1.77%
MVcost     0.1270s  62.46%
GScost     0.0203s  10.01%
subgencost 0.0325s  15.98%
subcost    0.0040s  1.95%
m & new_m 7 8

iteration 6
beginning of step 6 memory used: 4.87 GB
    CPU time for df vj and vk    122.68 sec, wall time      8.31 sec
subspace size: 8
Maximum residual norm:  6.65e-05
unconverged states [0]
sTDDFT_preconditioner conv 0.01
sTDDFT preconditioning Done
after 7 steps; 0.3733 s
final subspace 7
max_norm =  9.44e-03
initial_cost 0.0036s  0.97%
MVcost     0.2122s  56.86%
GScost     0.0401s  10.74%
subgencost 0.0546s  14.63%
subcost    0.0264s  7.07%
m & new_m 8 9

iteration 7
beginning of step 7 memory used: 4.87 GB
    CPU time for df vj and vk    123.10 sec, wall time      8.00 sec
subspace size: 9
Maximum residual norm:  2.11e-05
unconverged states [0]
sTDDFT_preconditioner conv 0.01
sTDDFT preconditioning Done
after 8 steps; 0.2230 s
final subspace 8
max_norm =  9.90e-03
initial_cost 0.0030s  1.34%
MVcost     0.1305s  58.52%
GScost     0.0257s  11.53%
subgencost 0.0403s  18.08%
subcost    0.0045s  2.02%
m & new_m 9 10

iteration 8
beginning of step 8 memory used: 4.87 GB
    CPU time for df vj and vk    121.73 sec, wall time      7.54 sec
subspace size: 10
Maximum residual norm:  6.41e-06
TDDFT precedure Done

============= TDDFT Calculation Done ==============
after 9 iterations 125.55 s
Final subspace  10
preconditioning cost 1.9444 0.02 %
max_norm =  6.41e-06
Total TDDFT memory used: 4.87 GB
Excited State energies (eV) =
 [3.53577513]

Number of excited states = 1
Initial guess:   Adiag
Preconditioner:  Adiag
A matrix size =  48764
new_m = 2
initial guess done

iteration 0
beginning of step 0 memory used: 4.87 GB
    CPU time for df vj and vk    244.58 sec, wall time     15.72 sec
subspace size: 2
Maximum residual norm:  1.56e-01
unconverged states [0]
m & new_m 2 3

iteration 1
beginning of step 1 memory used: 4.89 GB
    CPU time for df vj and vk    123.38 sec, wall time      8.46 sec
subspace size: 3
Maximum residual norm:  3.59e-02
unconverged states [0]
m & new_m 3 4

iteration 2
beginning of step 2 memory used: 4.89 GB
    CPU time for df vj and vk    121.88 sec, wall time      7.29 sec
subspace size: 4
Maximum residual norm:  1.84e-02
unconverged states [0]
m & new_m 4 5

iteration 3
beginning of step 3 memory used: 4.89 GB
    CPU time for df vj and vk    122.25 sec, wall time      8.43 sec
subspace size: 5
Maximum residual norm:  8.90e-03
unconverged states [0]
m & new_m 5 6

iteration 4
beginning of step 4 memory used: 4.89 GB
    CPU time for df vj and vk    124.35 sec, wall time      8.36 sec
subspace size: 6
Maximum residual norm:  4.15e-03
unconverged states [0]
m & new_m 6 7

iteration 5
beginning of step 5 memory used: 4.89 GB
    CPU time for df vj and vk    124.63 sec, wall time      8.52 sec
subspace size: 7
Maximum residual norm:  1.98e-03
unconverged states [0]
m & new_m 7 8

iteration 6
beginning of step 6 memory used: 4.89 GB
    CPU time for df vj and vk    125.26 sec, wall time      8.43 sec
subspace size: 8
Maximum residual norm:  9.01e-04
unconverged states [0]
m & new_m 8 9

iteration 7
beginning of step 7 memory used: 4.89 GB
    CPU time for df vj and vk    121.16 sec, wall time      7.30 sec
subspace size: 9
Maximum residual norm:  4.61e-04
unconverged states [0]
m & new_m 9 10

iteration 8
beginning of step 8 memory used: 4.89 GB
    CPU time for df vj and vk    124.47 sec, wall time      8.47 sec
subspace size: 10
Maximum residual norm:  2.20e-04
unconverged states [0]
m & new_m 10 11

iteration 9
beginning of step 9 memory used: 4.89 GB
    CPU time for df vj and vk    121.84 sec, wall time      7.22 sec
subspace size: 11
Maximum residual norm:  9.83e-05
unconverged states [0]
m & new_m 11 12

iteration 10
beginning of step 10 memory used: 4.89 GB
    CPU time for df vj and vk    124.86 sec, wall time      8.42 sec
subspace size: 12
Maximum residual norm:  3.95e-05
unconverged states [0]
m & new_m 12 13

iteration 11
beginning of step 11 memory used: 4.89 GB
    CPU time for df vj and vk    123.14 sec, wall time      8.48 sec
subspace size: 13
Maximum residual norm:  1.68e-05
unconverged states [0]
m & new_m 13 14

iteration 12
beginning of step 12 memory used: 4.89 GB
    CPU time for df vj and vk    122.99 sec, wall time      8.37 sec
subspace size: 14
Maximum residual norm:  8.46e-06
TDDFT precedure Done

============= TDDFT Calculation Done ==============
after 13 iterations 172.77 s
Final subspace  14
preconditioning cost 0.0217 0.00 %
max_norm =  8.46e-06
Total TDDFT memory used: 4.89 GB
Excited State energies (eV) =
 [3.53577513]
xyzfile = 36_DAPI.xyz
checkfile = True
method = RKS
functional = pbe0
basis_set = def2-tzvp
density_fit = True
grid_level = 3
nstates = 1
pytd = False
TDA = False
TDDFT = True
dynpol = False
dynpol_omega = []
stapol = False
sTDA = False
sTDDFT = False
Truncate_test = False
truncate_virtual = 40.0
ip_options = [0, 1]
conv_tolerance = 1e-05
initial_TOL = 0.001
precond_TOL = 0.01
extrainitial = 8
max = 30
eigensolver_tol = 1e-05
memory = 50000
verbose = 5
beta = []
alpha = []
|-------- In-house Developed TDDFT Ends ----------|
