curpath /scratch/pbsjobs/job.15971919.hpc
lib.num_threads() =  16
at beginning memory used: 52.375 MB
mol.max_memory 60000


System: uname_result(system='Linux', node='compt301', release='3.10.0-1127.el7.x86_64', version='#1 SMP Tue Feb 18 16:39:12 EST 2020', machine='x86_64', processor='x86_64')  Threads 16
Python 3.7.0 (default, Aug 23 2018, 14:24:33) 
[GCC 6.3.0]
numpy 1.18.1  scipy 1.4.1
Date: Wed Jul  7 16:43:29 2021
PySCF version 1.7.4
PySCF path  /home/zzz6/.local/lib/python3.7/site-packages/pyscf

[CONFIG] conf_file None
[INPUT] verbose = 5
[INPUT] max_memory = 60000 
[INPUT] num. atoms = 76
[INPUT] num. electrons = 298
[INPUT] charge = 0
[INPUT] spin (= nelec alpha-beta = 2S) = 0
[INPUT] symmetry False subgroup None
[INPUT] Mole.unit = angstrom
[INPUT]  1 O      5.559624300023   0.651281421802  -1.864908644267 AA   10.506167282520   1.230743517223  -3.524166584999 Bohr
[INPUT]  2 O      6.377818206338  -2.016379333822  -1.837706674260 AA   12.052329682244  -3.810404704157  -3.472762311637 Bohr
[INPUT]  3 O      5.512230034255   0.072439663768   0.316303558149 AA   10.416605100343   0.136891125078   0.597727097128 Bohr
[INPUT]  4 O      6.471897998305  -3.379034502832  -0.038452621334 AA   12.230114722916  -6.385449775807  -0.072664923093 Bohr
[INPUT]  5 N     -2.263082163733   1.934033430576  -0.066862640884 AA   -4.276605486843   3.654793499542  -0.126352079235 Bohr
[INPUT]  6 N     -2.511154661691  -1.321748027285   0.086743556711 AA   -4.745394567021  -2.497741777253   0.163921565255 Bohr
[INPUT]  7 N      0.391100920292   1.702542236117   0.341845347179 AA    0.739073626417   3.217338541765   0.645994083125 Bohr
[INPUT]  8 N      0.149306387569  -1.441986897956   0.416680386999 AA    0.282148181154  -2.724960312348   0.787411812907 Bohr
[INPUT]  9 C      2.564937035245   2.497666720731   0.699931612457 AA    4.847028523368   4.719906052622   1.322679053470 Bohr
[INPUT] 10 C      2.213489988193  -2.526329979928   0.617078962096 AA    4.182889857151  -4.774071762342   1.166110235592 Bohr
[INPUT] 11 C      1.680599987073   1.317228325896   0.562672356105 AA    3.175873700515   2.489200779463   1.063296650903 Bohr
[INPUT] 12 C      1.755348126111   3.599763120853   0.538742301773 AA    3.317127211618   6.802566411722   1.018075402070 Bohr
[INPUT] 13 C      1.490954599230  -1.236757836467   0.547216448788 AA    2.817495856706  -2.337133593332   1.034089219066 Bohr
[INPUT] 14 C      1.254628984339  -3.509530173101   0.541706249594 AA    2.370905168343  -6.632050853058   1.023676451698 Bohr
[INPUT] 15 C      0.404908797691   3.069517785127   0.319793554834 AA    0.765166733063   5.800547948371   0.604322235037 Bohr
[INPUT] 16 C     -0.025004741228  -2.799277418137   0.422293475505 AA   -0.047252112736  -5.289867666959   0.798019012895 Bohr
[INPUT] 17 C     -2.028433219596   3.294736861614  -0.076362459956 AA   -3.833183247006   6.226150320959  -0.144304135514 Bohr
[INPUT] 18 C     -3.806881296063  -0.875919091383  -0.064403969441 AA   -7.193963038288  -1.655247189992  -0.121705863579 Bohr
[INPUT] 19 C     -2.485113968327  -2.693932919016   0.174361796825 AA   -4.696184788469  -5.090795414891   0.329496042586 Bohr
[INPUT] 20 C     -3.599045782518   1.674058260878  -0.267776011601 AA   -6.801210838731   3.163511629626  -0.506023324653 Bohr
[INPUT] 21 C      4.047701716662   2.507984511616   0.958976376394 AA    7.649047678423   4.739403851605   1.812202711313 Bohr
[INPUT] 22 C      3.705115313662  -2.690825737728   0.639067266532 AA    7.001653202754  -5.084923693236   1.207662108919 Bohr
[INPUT] 23 C      2.159543738343  -0.002402987027   0.644521891546 AA    4.080946219487  -0.004540987362   1.217969856309 Bohr
[INPUT] 24 C     -3.281928287856   3.959315994444  -0.306121867632 AA   -6.201945624510   7.482022870110  -0.578486490564 Bohr
[INPUT] 25 C     -4.665105590143  -2.042353530479  -0.066632942983 AA   -8.815771907549  -3.859488822144  -0.125918013112 Bohr
[INPUT] 26 C     -4.254399767884   2.965841788186  -0.455453217856 AA   -8.039650385714   5.604628708462  -0.860681844300 Bohr
[INPUT] 27 C     -3.848431169213  -3.173712924899   0.070021789421 AA   -7.272480919053  -5.997448226052   0.132322004758 Bohr
[INPUT] 28 C     -0.752813232445   3.841306721983   0.115420576995 AA   -1.422610832270   7.259017665000   0.218113279659 Bohr
[INPUT] 29 C     -1.289363978288  -3.408051480024   0.323518783121 AA   -2.436544793844  -6.440283915665   0.611361896251 Bohr
[INPUT] 30 C     -4.261472886620   0.441956246278  -0.221886854989 AA   -8.053016642972   0.835176264506  -0.419305386571 Bohr
[INPUT] 31 C      2.119372345372   5.053692292635   0.572544779609 AA    4.005033288730   9.550094350905   1.081952827510 Bohr
[INPUT] 32 C      4.925843940857   2.342906077874  -0.306491836570 AA    9.308495980569   4.427450822761  -0.579185630533 Bohr
[INPUT] 33 C      4.294711290848  -2.578110755852  -0.782629532417 AA    8.115828123781  -4.871923247355  -1.478955473265 Bohr
[INPUT] 34 C      1.429558152170  -4.998471636530   0.552478871990 AA    2.701473386740  -9.445742434448   1.044033757669 Bohr
[INPUT] 35 C     -3.455511697611   5.443214539949  -0.427532937636 AA   -6.529970728715  10.286184717754  -0.807920161363 Bohr
[INPUT] 36 C     -6.158718607069  -2.010722506939  -0.180363765536 AA  -11.638291445623  -3.799714850613  -0.340838119658 Bohr
[INPUT] 37 C     -5.663662615932   3.211826545843  -0.755370583521 AA  -10.702771206049   6.069472531251  -1.427443525407 Bohr
[INPUT] 38 C     -4.196394415250  -4.586714204087   0.129378220222 AA   -7.930036155477  -8.667633657378   0.244489402704 Bohr
[INPUT] 39 C      5.346788275321   0.908094807187  -0.562403177576 AA   10.103965486393   1.716050480723  -1.062787977205 Bohr
[INPUT] 40 C      5.797601852709  -2.717301328334  -0.792284121396 AA   10.955879680892  -5.134955308468  -1.497200002281 Bohr
[INPUT] 41 C     -6.494210827619   2.451534451164  -1.501352343501 AA  -12.272279859386   4.632728697637  -2.837144745691 Bohr
[INPUT] 42 C     -5.374381906977  -5.174140621413  -0.180044612494 AA  -10.156109893003  -9.777708704458  -0.340235007818 Bohr
[INPUT] 43 H      4.332963203896   1.712991976864   1.670455659906 AA    8.188113763181   3.237085689850   3.156703700452 Bohr
[INPUT] 44 H      4.306930454131   3.466855861878   1.438473710191 AA    8.138918995856   6.551408092292   2.718321349648 Bohr
[INPUT] 45 H      3.986253530777  -3.670839595528   1.059914601652 AA    7.532927436250  -6.936881482756   2.002948312549 Bohr
[INPUT] 46 H      4.182115176280  -1.923457164521   1.271232219167 AA    7.903052304556  -3.634807253277   2.402280734948 Bohr
[INPUT] 47 H      3.237905891275  -0.084404355624   0.813168049000 AA    6.118755351625  -0.159501115850   1.536664905856 Bohr
[INPUT] 48 H     -0.662788450474   4.931007802631   0.107000929864 AA   -1.252488649921   9.318254265066   0.202202452516 Bohr
[INPUT] 49 H     -1.345591332255  -4.499069544781   0.358515334275 AA   -2.542799093551  -8.502009255008   0.677495793237 Bohr
[INPUT] 50 H     -1.432246892536   1.323063846525   0.106197128117 AA   -2.706554369653   2.500228315246   0.200683487356 Bohr
[INPUT] 51 H     -1.587122041616  -0.835758816099   0.163801945146 AA   -2.999225984916  -1.579355268618   0.309540814997 Bohr
[INPUT] 52 H     -5.344471507339   0.529156515479  -0.321890269578 AA  -10.099587429413   0.999960891285  -0.608284451664 Bohr
[INPUT] 53 H      1.486917835643   5.613273615728   1.286139745064 AA    2.809867479096  10.607549795972   2.430451876089 Bohr
[INPUT] 54 H      3.171042614435   5.200438297701   0.869621327576 AA    5.992402070608   9.827404110355   1.643346141200 Bohr
[INPUT] 55 H      1.985334574351   5.527358336554  -0.418526055697 AA    3.751738611153  10.445193448418  -0.790899621262 Bohr
[INPUT] 56 H      5.872102906281   2.903403800947  -0.176825319871 AA   11.096666268134   5.486638012811  -0.334151426445 Bohr
[INPUT] 57 H      4.439002275062   2.749925054515  -1.207343985535 AA    8.388498566189   5.196605216113  -2.281549470803 Bohr
[INPUT] 58 H      3.890065432922  -3.386705403339  -1.422112078361 AA    7.351158274860  -6.399945676896  -2.687402346538 Bohr
[INPUT] 59 H      4.003308098872  -1.630244252785  -1.261909964788 AA    7.565155899122  -3.080715153910  -2.384664227309 Bohr
[INPUT] 60 H      2.478958576011  -5.277037786881   0.744107985359 AA    4.684552782802  -9.972156166186   1.406160299431 Bohr
[INPUT] 61 H      1.133139877550  -5.449614911079  -0.413492845670 AA    2.141324029393 -10.298279666286  -0.781388232784 Bohr
[INPUT] 62 H      0.808166296344  -5.473325400301   1.334131672225 AA    1.527212963194 -10.343085997194   2.521143474614 Bohr
[INPUT] 63 H     -4.506281062450   5.739719334664  -0.277798275255 AA   -8.515637048344  10.846497574386  -0.524962658108 Bohr
[INPUT] 64 H     -3.152205553838   5.801653802871  -1.429444318104 AA   -5.956805185086  10.963536756967  -2.701258271532 Bohr
[INPUT] 65 H     -2.840009459856   5.980442810003   0.314434835521 AA   -5.366840070301  11.301399014529   0.594195723157 Bohr
[INPUT] 66 H     -6.497624650500  -2.344065643939  -1.179828324093 AA  -12.278731049668  -4.429642085047  -2.229552406540 Bohr
[INPUT] 67 H     -6.562994334467  -1.000053009711  -0.012067214322 AA  -12.402261849215  -1.889826298401  -0.022803730155 Bohr
[INPUT] 68 H     -6.618977840437  -2.686857898709   0.561928261844 AA  -12.508055342991  -5.077425564184   1.061890516538 Bohr
[INPUT] 69 H     -6.063327228222   4.152097286252  -0.349090565261 AA  -11.458027864957   7.846326713567  -0.659685561012 Bohr
[INPUT] 70 H     -3.383268052462  -5.244494092092   0.464138631706 AA   -6.393450025145  -9.910657495953   0.877094897755 Bohr
[INPUT] 71 H     -7.535989807776   2.751455596418  -1.657478757286 AA  -14.240956814210   5.199497521132  -3.132180908555 Bohr
[INPUT] 72 H     -6.160906615927   1.536741716220  -2.002972833264 AA  -11.642426183124   2.904020967850  -3.785070089813 Bohr
[INPUT] 73 H     -5.492848751428  -6.258265397419  -0.081113405580 AA  -10.379979783859 -11.826407615965  -0.153282121577 Bohr
[INPUT] 74 H     -6.239355130685  -4.618233280566  -0.550872080796 AA  -11.790672390894  -8.727196079621  -1.040997362373 Bohr
[INPUT] 75 H      5.876896067352  -0.290777046710  -1.930316146589 AA   11.105724029830  -0.549488981591  -3.647768850879 Bohr
[INPUT] 76 H      7.342654726540  -2.183889966448  -1.764646943557 AA   13.875606460404  -4.126953922773  -3.334699429874 Bohr
[INPUT] ---------------- BASIS SET ---------------- 
[INPUT] l, kappa, [nprim/nctr], expnt,             c_1 c_2 ...
[INPUT] O
[INPUT] 0    0    [6    /1   ]  27032.382631      0.00021726302465
                                4052.3871392      0.0016838662199
                                922.3272271       0.0087395616265
                                261.24070989      0.035239968808
                                85.354641351      0.11153519115
                                31.035035245      0.25588953961
[INPUT] 0    0    [2    /1   ]  12.260860728      0.39768730901
                                4.9987076005      0.2462784943
[INPUT] 0    0    [1    /1   ]  1.1703108158         1
[INPUT] 0    0    [1    /1   ]  0.46474740994        1
[INPUT] 0    0    [1    /1   ]  0.18504536357        1
[INPUT] 1    0    [4    /1   ]  63.274954801      0.0060685103418
                                14.627049379      0.041912575824
                                4.4501223456      0.16153841088
                                1.5275799647      0.35706951311
[INPUT] 1    0    [1    /1   ]  0.52935117943        1
[INPUT] 1    0    [1    /1   ]  0.1747842127         1
[INPUT] 2    0    [1    /1   ]  2.314                1
[INPUT] 2    0    [1    /1   ]  0.645                1
[INPUT] 3    0    [1    /1   ]  1.428                1
[INPUT] C
[INPUT] 0    0    [6    /1   ]  13575.349682      0.00022245814352
                                2035.233368       0.0017232738252
                                463.22562359      0.0089255715314
                                131.20019598      0.035727984502
                                42.853015891      0.11076259931
                                15.584185766      0.24295627626
[INPUT] 0    0    [2    /1   ]  6.2067138508      0.41440263448
                                2.5764896527      0.23744968655
[INPUT] 0    0    [1    /1   ]  0.57696339419        1
[INPUT] 0    0    [1    /1   ]  0.22972831358        1
[INPUT] 0    0    [1    /1   ]  0.095164440028       1
[INPUT] 1    0    [4    /1   ]  34.697232244      0.0053333657805
                                7.9582622826      0.035864109092
                                2.3780826883      0.14215873329
                                0.81433208183     0.34270471845
[INPUT] 1    0    [1    /1   ]  0.28887547253        1
[INPUT] 1    0    [1    /1   ]  0.10056823671        1
[INPUT] 2    0    [1    /1   ]  1.097                1
[INPUT] 2    0    [1    /1   ]  0.318                1
[INPUT] 3    0    [1    /1   ]  0.761                1
[INPUT] H
[INPUT] 0    0    [3    /1   ]  34.061341         0.0060251978
                                5.1235746         0.045021094
                                1.1646626         0.20189726
[INPUT] 0    0    [1    /1   ]  0.32723041           1
[INPUT] 0    0    [1    /1   ]  0.10307241           1
[INPUT] 1    0    [1    /1   ]  0.8                  1
[INPUT] N
[INPUT] 0    0    [6    /1   ]  19730.800647      0.00021887984991
                                2957.8958745      0.0016960708803
                                673.22133595      0.0087954603538
                                190.68249494      0.035359382605
                                62.295441898      0.11095789217
                                22.654161182      0.24982972552
[INPUT] 0    0    [2    /1   ]  8.9791477428      0.40623896148
                                3.686300237       0.24338217176
[INPUT] 0    0    [1    /1   ]  0.84660076805        1
[INPUT] 0    0    [1    /1   ]  0.33647133771        1
[INPUT] 0    0    [1    /1   ]  0.13647653675        1
[INPUT] 1    0    [4    /1   ]  49.20038051       0.0055552416751
                                11.346790537      0.038052379723
                                3.4273972411      0.14953671029
                                1.1785525134      0.3494930523
[INPUT] 1    0    [1    /1   ]  0.41642204972        1
[INPUT] 1    0    [1    /1   ]  0.14260826011        1
[INPUT] 2    0    [1    /1   ]  1.654                1
[INPUT] 2    0    [1    /1   ]  0.469                1
[INPUT] 3    0    [1    /1   ]  1.093                1

nuclear repulsion = 4767.94707731771
number of shells = 598
number of NR pGTOs = 2204
number of NR cGTOs = 1506
basis = def2-tzvp
ecp = {}
CPU time:         2.39
RKS
Density fitting turned on
Molecule built
Calculating SCF Energy...


******** <class 'pyscf.df.df_jk.density_fit.<locals>.DFHF'> ********
method = DFHF-RKS-RHF
initial guess = chkfile
damping factor = 0
level_shift factor = 0
DIIS = <class 'pyscf.scf.diis.CDIIS'>
diis_start_cycle = 1
diis_space = 8
SCF conv_tol = 1e-10
SCF conv_tol_grad = None
SCF max_cycles = 50
direct_scf = True
direct_scf_tol = 1e-13
chkfile to save SCF result = 76_Protoporphyrin_wb97x.chk
max_memory 60000 MB (current use 56 MB)
XC functionals = wb97x
small_rho_cutoff = 1e-07
radial grids: 
    Treutler-Ahlrichs [JCP 102, 346 (1995); DOI:10.1063/1.469408] (M4) radial grids
    
becke partition: Becke, JCP 88, 2547 (1988); DOI:10.1063/1.454033
pruning grids: <function nwchem_prune at 0x7fe3bf5ca048>
grids dens level: 3
symmetrized grids: False
atomic radii adjust function: <function treutler_atomic_radii_adjust at 0x7fe3bf5b7f28>
Set gradient conv threshold to 1e-05
atom O rad-grids = 75, ang-grids = [ 50  50  50  50  50  50  50  50  50  50  50  50  50  50  50  50  50  50
  50  50  50  50  86  86  86  86  86  86  86  86  86 266 266 266 266 266
 266 266 302 302 302 302 302 302 302 302 302 302 302 302 302 302 302 302
 302 302 302 266 266 266 266 266 266 266 266 266 266 266 266 266 266 266
 266 266 266]
atom N rad-grids = 75, ang-grids = [ 50  50  50  50  50  50  50  50  50  50  50  50  50  50  50  50  50  50
  50  50  50  50  50  86  86  86  86  86  86  86  86  86 266 266 266 266
 266 266 266 302 302 302 302 302 302 302 302 302 302 302 302 302 302 302
 302 302 302 302 266 266 266 266 266 266 266 266 266 266 266 266 266 266
 266 266 266]
atom C rad-grids = 75, ang-grids = [ 50  50  50  50  50  50  50  50  50  50  50  50  50  50  50  50  50  50
  50  50  50  50  50  86  86  86  86  86  86  86  86  86  86 266 266 266
 266 266 266 266 302 302 302 302 302 302 302 302 302 302 302 302 302 302
 302 302 302 302 302 302 266 266 266 266 266 266 266 266 266 266 266 266
 266 266 266]
atom H rad-grids = 50, ang-grids = [ 50  50  50  50  50  50  50  50  50  50  50  50  50  50  86  86  86  86
 266 266 266 266 302 302 302 302 302 302 302 302 302 302 302 302 302 266
 266 266 266 266 266 266 266 266 266 266 266 266 266 266]
tot grids = 926716
Drop grids 177309
    CPU time for setting up grids    252.49 sec, wall time     16.93 sec
nelec by numeric integration = 298.0003708931532
    CPU time for vxc    382.77 sec, wall time     24.81 sec
******** <class 'pyscf.df.df.DF'> ********
auxbasis = None
max_memory = 60000
_cderi_to_save = /tmp/job.15971919.hpc/tmpi3v7wnta
Default auxbasis def2-tzvp-jkfit is used for O def2-tzvp
Default auxbasis def2-tzvp-jkfit is used for C def2-tzvp
Default auxbasis def2-tzvp-jkfit is used for H def2-tzvp
Default auxbasis def2-tzvp-jkfit is used for N def2-tzvp
num shells = 1254, num cGTOs = 3778
size of aux basis 3778
int3c2e [1/5], AO [0:260], nrow = 262450
int3c2e [2/5], AO [260:364], nrow = 262350
int3c2e [3/5], AO [364:448], nrow = 262085
int3c2e [4/5], AO [448:560], nrow = 262191
int3c2e [5/5], AO [560:598], nrow = 85695
    CPU time for cholesky_eri    750.99 sec, wall time     95.28 sec
    CPU time for df vj and vk   2708.94 sec, wall time    232.22 sec
Create RSH-DF object <pyscf.df.df.DF object at 0x7fe3b29e6c50> for omega=0.3
******** <class 'pyscf.df.df.DF'> ********
auxbasis = None
max_memory = 60000
_cderi_to_save = /tmp/job.15971919.hpc/tmp7de4gn8a
Default auxbasis def2-tzvp-jkfit is used for O def2-tzvp
Default auxbasis def2-tzvp-jkfit is used for C def2-tzvp
Default auxbasis def2-tzvp-jkfit is used for H def2-tzvp
Default auxbasis def2-tzvp-jkfit is used for N def2-tzvp
num shells = 1254, num cGTOs = 3778
size of aux basis 3778
    CPU time for 2c2e      0.80 sec, wall time      0.07 sec
    CPU time for Cholesky 2c2e     28.05 sec, wall time      2.26 sec
erifile 34297.319 MB, IO buf size 5784.2691 MB
int3c2e [1/6], AO [0:219], nrow = 188191
    CPU time for gen CD eri [1/6]    194.49 sec, wall time     15.75 sec
int3c2e [2/6], AO [219:310], nrow = 190694
    CPU time for gen CD eri [2/6]    189.86 sec, wall time     12.26 sec
int3c2e [3/6], AO [310:381], nrow = 188760
    CPU time for gen CD eri [3/6]    188.34 sec, wall time     13.74 sec
int3c2e [4/6], AO [381:438], nrow = 186961
    CPU time for gen CD eri [4/6]    184.45 sec, wall time     14.53 sec
int3c2e [5/6], AO [438:510], nrow = 190019
    CPU time for gen CD eri [5/6]    193.45 sec, wall time     15.10 sec
int3c2e [6/6], AO [510:598], nrow = 190146
    CPU time for gen CD eri [6/6]    196.89 sec, wall time     17.25 sec
    CPU time for df vj and vk   2832.63 sec, wall time    319.60 sec
E1 = -11984.06913767697  Ecoul = 5638.79341530375  Exc = -258.85470934292266
init E= -1836.18335439843
cond(S) = 2944103.1704552816
    CPU time for initialize scf   6192.89 sec, wall time    595.63 sec
  HOMO = -0.25105403006394  LUMO = -0.0416258754206293
  mo_energy =
[-1.92628829e+01 -1.92391765e+01 -1.91965789e+01 -1.91858016e+01
 -1.44325245e+01 -1.44309714e+01 -1.43619738e+01 -1.43619602e+01
 -1.04059929e+01 -1.03977075e+01 -1.03183109e+01 -1.03152429e+01
 -1.03087956e+01 -1.03072320e+01 -1.02876594e+01 -1.02874006e+01
 -1.02873390e+01 -1.02868393e+01 -1.02849055e+01 -1.02832588e+01
 -1.02827599e+01 -1.02823938e+01 -1.02806035e+01 -1.02799830e+01
 -1.02789428e+01 -1.02787741e+01 -1.02786248e+01 -1.02718276e+01
 -1.02712503e+01 -1.02705661e+01 -1.02692907e+01 -1.02691821e+01
 -1.02684215e+01 -1.02650174e+01 -1.02647192e+01 -1.02640870e+01
 -1.02628586e+01 -1.02625601e+01 -1.02620587e+01 -1.02599886e+01
 -1.02599050e+01 -1.02591148e+01 -1.24590774e+00 -1.23189587e+00
 -1.15468327e+00 -1.13945458e+00 -1.11895523e+00 -1.11240850e+00
 -1.07009964e+00 -1.06331007e+00 -9.61071058e-01 -9.55691082e-01
 -9.53751697e-01 -9.44133056e-01 -9.41572950e-01 -9.27353259e-01
 -9.21643616e-01 -9.04054887e-01 -8.97189784e-01 -8.93668270e-01
 -8.87930355e-01 -8.66831836e-01 -8.56198497e-01 -8.40761123e-01
 -8.38698227e-01 -8.32601766e-01 -8.12360404e-01 -7.90091360e-01
 -7.87541867e-01 -7.76158053e-01 -7.67276816e-01 -7.47600178e-01
 -7.36713133e-01 -7.16594195e-01 -7.10120963e-01 -7.01127517e-01
 -6.95567714e-01 -6.79034274e-01 -6.71833393e-01 -6.61701570e-01
 -6.50628471e-01 -6.48863373e-01 -6.33871549e-01 -6.27494669e-01
 -6.23683827e-01 -6.23021060e-01 -6.15390594e-01 -6.10359047e-01
 -6.08020601e-01 -5.99407932e-01 -5.94346902e-01 -5.91396634e-01
 -5.88049141e-01 -5.77045900e-01 -5.75545243e-01 -5.69979809e-01
 -5.64547817e-01 -5.58178470e-01 -5.54908878e-01 -5.48256654e-01
 -5.45474870e-01 -5.43091293e-01 -5.42105057e-01 -5.40170384e-01
 -5.37745691e-01 -5.31119408e-01 -5.28508509e-01 -5.26161673e-01
 -5.22069040e-01 -5.17791565e-01 -5.15975753e-01 -5.13351563e-01
 -5.09743255e-01 -5.05862677e-01 -5.04181365e-01 -5.02393137e-01
 -4.99928005e-01 -4.94035697e-01 -4.91906777e-01 -4.89717018e-01
 -4.85593667e-01 -4.82500426e-01 -4.76070558e-01 -4.73773111e-01
 -4.71318037e-01 -4.65043298e-01 -4.58448296e-01 -4.54727496e-01
 -4.51016245e-01 -4.47622746e-01 -4.45477410e-01 -4.43753961e-01
 -4.39720679e-01 -4.36007293e-01 -4.26612354e-01 -4.18476684e-01
 -4.09509564e-01 -3.98795248e-01 -3.89740403e-01 -3.76900650e-01
 -3.72461303e-01 -3.68461315e-01 -3.52316428e-01 -3.33723705e-01
 -3.27814815e-01 -3.22004855e-01 -3.16406677e-01 -2.57971851e-01
 -2.51054030e-01 -4.16258754e-02 -3.79779924e-02  3.56300751e-02
  5.86803156e-02  7.94338092e-02  8.17242841e-02  8.83612028e-02
  1.04130007e-01  1.07323314e-01  1.13297189e-01  1.17039596e-01
  1.18260291e-01  1.21363906e-01  1.35040278e-01  1.39822931e-01
  1.42034174e-01  1.46764265e-01  1.48794837e-01  1.52892229e-01
  1.53255372e-01  1.54595976e-01  1.60438421e-01  1.61741889e-01
  1.62851218e-01  1.64376352e-01  1.70394385e-01  1.72768528e-01
  1.77551045e-01  1.83373693e-01  1.87929945e-01  1.89121230e-01
  1.92435065e-01  1.95337447e-01  1.96054709e-01  1.98018345e-01
  2.00473106e-01  2.03546283e-01  2.05097813e-01  2.09660165e-01
  2.13618088e-01  2.17644895e-01  2.18919663e-01  2.21389008e-01
  2.22951262e-01  2.25923473e-01  2.29478883e-01  2.30280369e-01
  2.32626480e-01  2.33391721e-01  2.35813198e-01  2.39223921e-01
  2.40738238e-01  2.44144634e-01  2.44861890e-01  2.48797040e-01
  2.52316137e-01  2.53740854e-01  2.56127307e-01  2.59557522e-01
  2.64151001e-01  2.67303132e-01  2.69910373e-01  2.72462150e-01
  2.74974000e-01  2.77886584e-01  2.80049455e-01  2.82412785e-01
  2.83249766e-01  2.89576947e-01  2.90832768e-01  2.93495414e-01
  2.94309826e-01  2.96574747e-01  3.00160031e-01  3.02395415e-01
  3.07932995e-01  3.09841506e-01  3.11621979e-01  3.12240559e-01
  3.15255417e-01  3.18884345e-01  3.20681203e-01  3.27361930e-01
  3.31260693e-01  3.33284056e-01  3.35619402e-01  3.37655303e-01
  3.40274226e-01  3.42700432e-01  3.44740361e-01  3.45601722e-01
  3.46374214e-01  3.51985527e-01  3.53928161e-01  3.57687014e-01
  3.59407241e-01  3.62169428e-01  3.64303497e-01  3.66451213e-01
  3.69746823e-01  3.71330930e-01  3.78271432e-01  3.81412627e-01
  3.83884791e-01  3.85499811e-01  3.87782867e-01  3.90416632e-01
  3.92999704e-01  3.95680761e-01  3.96480827e-01  4.02232104e-01
  4.02907527e-01  4.05581197e-01  4.08730521e-01  4.12783571e-01
  4.18834342e-01  4.19217280e-01  4.21748445e-01  4.24708431e-01
  4.27439800e-01  4.30412336e-01  4.31288378e-01  4.35481793e-01
  4.37482733e-01  4.39054697e-01  4.40734449e-01  4.45161631e-01
  4.47763131e-01  4.50145609e-01  4.52102635e-01  4.52996425e-01
  4.55690874e-01  4.59681417e-01  4.61237031e-01  4.63523241e-01
  4.65806967e-01  4.69203025e-01  4.73447807e-01  4.76196991e-01
  4.76406367e-01  4.78841632e-01  4.81642411e-01  4.83224663e-01
  4.84425743e-01  4.90752734e-01  4.93709575e-01  4.94519764e-01
  4.97379069e-01  4.98380063e-01  5.00159394e-01  5.01834124e-01
  5.04232934e-01  5.05261877e-01  5.10174384e-01  5.11902940e-01
  5.14687448e-01  5.17935875e-01  5.19511011e-01  5.21298001e-01
  5.21549299e-01  5.25844599e-01  5.29798897e-01  5.31772229e-01
  5.33362174e-01  5.34050915e-01  5.35575196e-01  5.40144385e-01
  5.41755554e-01  5.44014888e-01  5.48180312e-01  5.49209438e-01
  5.54277691e-01  5.55719568e-01  5.57224042e-01  5.59767736e-01
  5.61509904e-01  5.64512870e-01  5.65413569e-01  5.68027315e-01
  5.70692369e-01  5.71726643e-01  5.74554262e-01  5.76799016e-01
  5.78547021e-01  5.80439447e-01  5.83208157e-01  5.86965267e-01
  5.87895233e-01  5.90442356e-01  5.94367414e-01  5.96485444e-01
  5.98610768e-01  6.03006362e-01  6.04120818e-01  6.08305031e-01
  6.10270931e-01  6.13260737e-01  6.17818984e-01  6.22444268e-01
  6.23228342e-01  6.25604597e-01  6.26814637e-01  6.30880923e-01
  6.32344501e-01  6.41430755e-01  6.42827322e-01  6.43995362e-01
  6.47294885e-01  6.49294851e-01  6.53016175e-01  6.55128615e-01
  6.57905719e-01  6.59573038e-01  6.63833677e-01  6.67878209e-01
  6.70890967e-01  6.74279583e-01  6.75662188e-01  6.79958525e-01
  6.84360410e-01  6.89258994e-01  6.89304798e-01  6.91323780e-01
  6.95965276e-01  6.99846077e-01  7.02636229e-01  7.05001048e-01
  7.07525103e-01  7.10123770e-01  7.12402747e-01  7.15344419e-01
  7.16270077e-01  7.18054731e-01  7.22137595e-01  7.23666794e-01
  7.26398883e-01  7.29715032e-01  7.33142098e-01  7.37797521e-01
  7.39541852e-01  7.40531276e-01  7.44776312e-01  7.47080588e-01
  7.48662923e-01  7.53756924e-01  7.54699411e-01  7.58631633e-01
  7.62904997e-01  7.65127511e-01  7.65787225e-01  7.68246334e-01
  7.72567860e-01  7.74032054e-01  7.80443666e-01  7.82803516e-01
  7.84702471e-01  7.89264351e-01  7.92221837e-01  7.93783353e-01
  7.96492487e-01  8.01978731e-01  8.03005065e-01  8.04034253e-01
  8.10822001e-01  8.13895779e-01  8.18341628e-01  8.21412149e-01
  8.24366224e-01  8.28258944e-01  8.30175138e-01  8.34892910e-01
  8.40658609e-01  8.42033512e-01  8.44291843e-01  8.45116714e-01
  8.49984843e-01  8.56510652e-01  8.59688654e-01  8.63886949e-01
  8.66097349e-01  8.67822308e-01  8.73061555e-01  8.76578994e-01
  8.80821842e-01  8.86386246e-01  8.89084737e-01  8.93226523e-01
  8.97956825e-01  8.98783287e-01  9.03171618e-01  9.06180015e-01
  9.10529383e-01  9.16204986e-01  9.19831350e-01  9.23182173e-01
  9.24814453e-01  9.28259832e-01  9.29603230e-01  9.36033388e-01
  9.39031287e-01  9.46198251e-01  9.49718416e-01  9.52159338e-01
  9.54424378e-01  9.63065983e-01  9.65586562e-01  9.67254247e-01
  9.73138866e-01  9.76080803e-01  9.81539068e-01  9.86113771e-01
  9.89725539e-01  9.92461590e-01  9.94273020e-01  9.96474453e-01
  1.00206807e+00  1.01285419e+00  1.01405034e+00  1.01741432e+00
  1.01980632e+00  1.02382464e+00  1.02793556e+00  1.03037518e+00
  1.03102581e+00  1.03556476e+00  1.03825600e+00  1.04343328e+00
  1.04590785e+00  1.05143968e+00  1.05283605e+00  1.05358732e+00
  1.05991126e+00  1.06547870e+00  1.06646513e+00  1.06831024e+00
  1.07288064e+00  1.07392526e+00  1.08205946e+00  1.08428216e+00
  1.08794630e+00  1.09059411e+00  1.09458229e+00  1.09669577e+00
  1.10426373e+00  1.11056533e+00  1.11700622e+00  1.12168649e+00
  1.12694021e+00  1.12860655e+00  1.13100085e+00  1.13350157e+00
  1.13711930e+00  1.14097947e+00  1.14748857e+00  1.15346844e+00
  1.15555943e+00  1.16048620e+00  1.16261970e+00  1.16623327e+00
  1.17177615e+00  1.17475133e+00  1.17680748e+00  1.17861990e+00
  1.18501256e+00  1.18798284e+00  1.19357626e+00  1.20028264e+00
  1.20405720e+00  1.20822720e+00  1.21483168e+00  1.21798562e+00
  1.22155172e+00  1.22261384e+00  1.22543025e+00  1.23101544e+00
  1.23827823e+00  1.24287220e+00  1.24788737e+00  1.25025187e+00
  1.25309771e+00  1.26298999e+00  1.26416174e+00  1.26935125e+00
  1.27604619e+00  1.27899928e+00  1.28453142e+00  1.28811189e+00
  1.29169230e+00  1.29313024e+00  1.30030917e+00  1.30652961e+00
  1.31104962e+00  1.31573441e+00  1.31695037e+00  1.32116631e+00
  1.32486899e+00  1.33019704e+00  1.33752002e+00  1.33951535e+00
  1.34212247e+00  1.34763687e+00  1.35296003e+00  1.35545401e+00
  1.36717347e+00  1.37144431e+00  1.37387268e+00  1.37556225e+00
  1.37800884e+00  1.38224197e+00  1.38891281e+00  1.39187105e+00
  1.40164056e+00  1.40425454e+00  1.41187374e+00  1.41475000e+00
  1.41637202e+00  1.42006279e+00  1.42224472e+00  1.42690747e+00
  1.43436651e+00  1.44069985e+00  1.44439143e+00  1.44994944e+00
  1.45381850e+00  1.45783557e+00  1.46377138e+00  1.46735977e+00
  1.46963143e+00  1.47584221e+00  1.47997221e+00  1.48888653e+00
  1.49269857e+00  1.49546247e+00  1.50057831e+00  1.50916302e+00
  1.51284532e+00  1.51808528e+00  1.51899361e+00  1.52697148e+00
  1.53371570e+00  1.53904051e+00  1.54059279e+00  1.54196974e+00
  1.54662829e+00  1.55070183e+00  1.55368893e+00  1.55673136e+00
  1.56238895e+00  1.56428364e+00  1.57003954e+00  1.57278955e+00
  1.58275014e+00  1.58863864e+00  1.59273088e+00  1.59410540e+00
  1.59929104e+00  1.60530443e+00  1.60837235e+00  1.61319139e+00
  1.61775417e+00  1.62165177e+00  1.62750580e+00  1.63404492e+00
  1.63599828e+00  1.64260970e+00  1.64436860e+00  1.64492743e+00
  1.64734945e+00  1.65053773e+00  1.65470793e+00  1.65623144e+00
  1.65872726e+00  1.66317027e+00  1.66541868e+00  1.66732191e+00
  1.67219414e+00  1.67471442e+00  1.67534486e+00  1.67728874e+00
  1.68072007e+00  1.68413257e+00  1.68590375e+00  1.68933353e+00
  1.69141399e+00  1.69377243e+00  1.69492794e+00  1.69874536e+00
  1.70382726e+00  1.70723066e+00  1.70892433e+00  1.71438805e+00
  1.71528822e+00  1.71865437e+00  1.72212335e+00  1.72449847e+00
  1.72758720e+00  1.73185643e+00  1.73448015e+00  1.73918501e+00
  1.74416302e+00  1.74613957e+00  1.74889665e+00  1.75248590e+00
  1.75348213e+00  1.75719370e+00  1.76171369e+00  1.76360118e+00
  1.76727361e+00  1.77096451e+00  1.77202083e+00  1.77549748e+00
  1.78484466e+00  1.78703813e+00  1.79375682e+00  1.79603883e+00
  1.79835527e+00  1.80474914e+00  1.80893532e+00  1.81178220e+00
  1.81477273e+00  1.81979479e+00  1.82242914e+00  1.82770505e+00
  1.82922959e+00  1.83424848e+00  1.83724840e+00  1.83899815e+00
  1.84474398e+00  1.85197775e+00  1.85678580e+00  1.85934041e+00
  1.86374436e+00  1.86753109e+00  1.87058355e+00  1.88190325e+00
  1.88517436e+00  1.88887623e+00  1.89484150e+00  1.89818005e+00
  1.90421655e+00  1.90684391e+00  1.91442761e+00  1.92296114e+00
  1.92464713e+00  1.92847443e+00  1.93373550e+00  1.93518383e+00
  1.94056132e+00  1.94313525e+00  1.94652262e+00  1.94968198e+00
  1.95185782e+00  1.95686976e+00  1.96102579e+00  1.96634694e+00
  1.96884479e+00  1.97003551e+00  1.97262006e+00  1.97454547e+00
  1.98330536e+00  1.98542476e+00  1.99187844e+00  1.99737397e+00
  2.00047823e+00  2.00713878e+00  2.01074190e+00  2.01554150e+00
  2.01943862e+00  2.02500796e+00  2.02735345e+00  2.03004712e+00
  2.03849464e+00  2.04316116e+00  2.04540105e+00  2.05093477e+00
  2.05381976e+00  2.06276637e+00  2.06806385e+00  2.07536222e+00
  2.08228903e+00  2.08674349e+00  2.09176361e+00  2.09353738e+00
  2.09964342e+00  2.10568286e+00  2.11383135e+00  2.11784950e+00
  2.12086742e+00  2.12622992e+00  2.13219833e+00  2.13599616e+00
  2.14494851e+00  2.14589149e+00  2.14932828e+00  2.15310646e+00
  2.15604146e+00  2.16069527e+00  2.16240476e+00  2.17017565e+00
  2.17276299e+00  2.17734453e+00  2.17866811e+00  2.18093057e+00
  2.18562567e+00  2.18930362e+00  2.19241828e+00  2.19727785e+00
  2.20145998e+00  2.20546181e+00  2.20769723e+00  2.21294856e+00
  2.21465370e+00  2.22117122e+00  2.22593828e+00  2.23313761e+00
  2.23715002e+00  2.23981917e+00  2.24274675e+00  2.24490109e+00
  2.25087495e+00  2.25961015e+00  2.26108091e+00  2.26568590e+00
  2.26949824e+00  2.27255707e+00  2.27790741e+00  2.28534791e+00
  2.29208982e+00  2.29896368e+00  2.30247930e+00  2.30546221e+00
  2.31475260e+00  2.31640080e+00  2.32128665e+00  2.32984424e+00
  2.33229572e+00  2.33793056e+00  2.34604080e+00  2.34824855e+00
  2.35523130e+00  2.35710649e+00  2.35946535e+00  2.36978230e+00
  2.37341642e+00  2.37462780e+00  2.38156065e+00  2.38350157e+00
  2.39108354e+00  2.39815545e+00  2.40035624e+00  2.40479138e+00
  2.40890530e+00  2.41220357e+00  2.42047479e+00  2.42528256e+00
  2.42731246e+00  2.42965774e+00  2.43565451e+00  2.43872350e+00
  2.44600268e+00  2.45256032e+00  2.45381048e+00  2.46007833e+00
  2.46124289e+00  2.46546490e+00  2.46905164e+00  2.47154566e+00
  2.47293573e+00  2.48052304e+00  2.48367730e+00  2.48649950e+00
  2.49117709e+00  2.49490130e+00  2.50212589e+00  2.50739617e+00
  2.50959224e+00  2.51491054e+00  2.51820906e+00  2.52090483e+00
  2.52671758e+00  2.52858150e+00  2.53811049e+00  2.54299082e+00
  2.54348596e+00  2.54759006e+00  2.55349639e+00  2.55771259e+00
  2.56045106e+00  2.56627405e+00  2.56712474e+00  2.57311341e+00
  2.58373940e+00  2.58712794e+00  2.59444792e+00  2.59865767e+00
  2.60309238e+00  2.60809769e+00  2.61621374e+00  2.62396049e+00
  2.62559796e+00  2.62761545e+00  2.63293714e+00  2.63576323e+00
  2.64229029e+00  2.64427031e+00  2.64589091e+00  2.64951649e+00
  2.65452663e+00  2.65604298e+00  2.65887774e+00  2.66317254e+00
  2.66710564e+00  2.67023641e+00  2.67779736e+00  2.68110195e+00
  2.68237485e+00  2.68957122e+00  2.69125852e+00  2.69468241e+00
  2.70312614e+00  2.71115506e+00  2.71242962e+00  2.71459468e+00
  2.71969697e+00  2.72445472e+00  2.72924905e+00  2.73486828e+00
  2.73897112e+00  2.73951647e+00  2.74483261e+00  2.74788545e+00
  2.75130447e+00  2.75409948e+00  2.76060801e+00  2.76254659e+00
  2.76502191e+00  2.77173391e+00  2.77518440e+00  2.78154712e+00
  2.78165149e+00  2.78585373e+00  2.78942712e+00  2.80002038e+00
  2.80273044e+00  2.80597296e+00  2.81033747e+00  2.81460235e+00
  2.81744076e+00  2.82787395e+00  2.83126485e+00  2.83554338e+00
  2.84120528e+00  2.84290634e+00  2.84585747e+00  2.84807945e+00
  2.85095262e+00  2.85490757e+00  2.86134472e+00  2.86224183e+00
  2.86860920e+00  2.86917510e+00  2.87571582e+00  2.87924551e+00
  2.88057333e+00  2.88850739e+00  2.89174118e+00  2.89356803e+00
  2.90342195e+00  2.90446888e+00  2.90897825e+00  2.91080502e+00
  2.91607796e+00  2.91917131e+00  2.92879962e+00  2.93011739e+00
  2.93206667e+00  2.94012794e+00  2.94193699e+00  2.94724061e+00
  2.94962299e+00  2.95276350e+00  2.95857274e+00  2.96226568e+00
  2.96731472e+00  2.97046085e+00  2.97420355e+00  2.97731256e+00
  2.97824944e+00  2.98659520e+00  2.99012324e+00  2.99386383e+00
  2.99863266e+00  3.00469134e+00  3.00778469e+00  3.01104496e+00
  3.01212681e+00  3.01743828e+00  3.02704487e+00  3.02797542e+00
  3.03572098e+00  3.03621610e+00  3.03848857e+00  3.04176555e+00
  3.04865553e+00  3.05353476e+00  3.05540848e+00  3.06097920e+00
  3.06521743e+00  3.07018273e+00  3.07097857e+00  3.07512192e+00
  3.07669268e+00  3.08045852e+00  3.08598319e+00  3.08931278e+00
  3.09263282e+00  3.09556482e+00  3.09988532e+00  3.10406876e+00
  3.10753982e+00  3.10911460e+00  3.11052076e+00  3.11243735e+00
  3.11625957e+00  3.12105180e+00  3.12288135e+00  3.12596031e+00
  3.12915611e+00  3.13108516e+00  3.13579818e+00  3.14185100e+00
  3.14294808e+00  3.14798130e+00  3.15181105e+00  3.15652916e+00
  3.16075426e+00  3.16221148e+00  3.16531515e+00  3.16722693e+00
  3.17435947e+00  3.17619554e+00  3.17697493e+00  3.17837871e+00
  3.18372370e+00  3.18800767e+00  3.19320567e+00  3.19640563e+00
  3.19819963e+00  3.20253360e+00  3.20406832e+00  3.21283243e+00
  3.21473936e+00  3.21682760e+00  3.22403551e+00  3.22700884e+00
  3.22989074e+00  3.23344873e+00  3.23452569e+00  3.23696068e+00
  3.24166097e+00  3.24433650e+00  3.24689040e+00  3.25060441e+00
  3.25233580e+00  3.25644917e+00  3.25841023e+00  3.26125084e+00
  3.26280992e+00  3.26369969e+00  3.27086061e+00  3.27126926e+00
  3.27585685e+00  3.28061953e+00  3.28335716e+00  3.28591923e+00
  3.29094872e+00  3.29346562e+00  3.29475578e+00  3.30005870e+00
  3.30386295e+00  3.30494325e+00  3.31076181e+00  3.31230122e+00
  3.31404564e+00  3.31811121e+00  3.32003941e+00  3.32332288e+00
  3.32561651e+00  3.32859312e+00  3.33600689e+00  3.33729817e+00
  3.34133223e+00  3.34605873e+00  3.34838934e+00  3.35068255e+00
  3.35506283e+00  3.35735978e+00  3.36098997e+00  3.36282802e+00
  3.36826110e+00  3.37265006e+00  3.37661179e+00  3.38093211e+00
  3.38224090e+00  3.38731231e+00  3.38834961e+00  3.39056513e+00
  3.39270624e+00  3.39563101e+00  3.39974937e+00  3.40203867e+00
  3.40410746e+00  3.40597295e+00  3.40750484e+00  3.41006558e+00
  3.41136276e+00  3.41309212e+00  3.41463564e+00  3.41691009e+00
  3.41928885e+00  3.42034344e+00  3.42555880e+00  3.42644404e+00
  3.42883752e+00  3.43242994e+00  3.43801755e+00  3.44214381e+00
  3.44764490e+00  3.44857641e+00  3.44984141e+00  3.45247509e+00
  3.45668938e+00  3.45869813e+00  3.46260443e+00  3.46503934e+00
  3.47052501e+00  3.47270339e+00  3.47635354e+00  3.47962751e+00
  3.48121023e+00  3.48475586e+00  3.49102413e+00  3.49522142e+00
  3.50066235e+00  3.50143175e+00  3.50572328e+00  3.51048102e+00
  3.51197231e+00  3.51307826e+00  3.51940296e+00  3.52111905e+00
  3.52370356e+00  3.53016926e+00  3.53371797e+00  3.53741609e+00
  3.54498578e+00  3.54811804e+00  3.55235755e+00  3.55771904e+00
  3.56132542e+00  3.56255543e+00  3.57177856e+00  3.57685122e+00
  3.57797691e+00  3.58226675e+00  3.58558866e+00  3.59445261e+00
  3.59810623e+00  3.60094535e+00  3.60551791e+00  3.60767816e+00
  3.61233683e+00  3.62242731e+00  3.62681408e+00  3.63143195e+00
  3.63617001e+00  3.64162171e+00  3.64771269e+00  3.65006150e+00
  3.65469271e+00  3.65620017e+00  3.66015065e+00  3.66240367e+00
  3.66595113e+00  3.66879697e+00  3.67187632e+00  3.67713901e+00
  3.68185298e+00  3.68768666e+00  3.69230366e+00  3.69964463e+00
  3.70072918e+00  3.70212271e+00  3.71010088e+00  3.71838609e+00
  3.72071516e+00  3.72721111e+00  3.73874903e+00  3.74001856e+00
  3.74442415e+00  3.74529631e+00  3.75387653e+00  3.75398598e+00
  3.76274404e+00  3.76698562e+00  3.77203376e+00  3.77600012e+00
  3.78119167e+00  3.78462126e+00  3.78635263e+00  3.79283118e+00
  3.79869985e+00  3.80286798e+00  3.80668323e+00  3.80909117e+00
  3.81440510e+00  3.82240574e+00  3.82582976e+00  3.82963920e+00
  3.83585773e+00  3.83833616e+00  3.84625753e+00  3.84813377e+00
  3.85466344e+00  3.85585080e+00  3.85948554e+00  3.86947738e+00
  3.87167427e+00  3.87790679e+00  3.88211458e+00  3.89010586e+00
  3.89771509e+00  3.90068921e+00  3.90619550e+00  3.91492379e+00
  3.92117299e+00  3.92312431e+00  3.92633760e+00  3.93869526e+00
  3.94355027e+00  3.94485483e+00  3.95229933e+00  3.95613570e+00
  3.96292778e+00  3.97778399e+00  3.98083225e+00  3.99559974e+00
  3.99932306e+00  4.00242220e+00  4.01105117e+00  4.02620981e+00
  4.02689777e+00  4.03295229e+00  4.03434673e+00  4.03727853e+00
  4.03970363e+00  4.04529000e+00  4.04944757e+00  4.05399977e+00
  4.06625244e+00  4.07182028e+00  4.07650350e+00  4.08162113e+00
  4.08262707e+00  4.08782677e+00  4.09400077e+00  4.10605291e+00
  4.11284149e+00  4.11679454e+00  4.12221553e+00  4.13024366e+00
  4.13589369e+00  4.13744554e+00  4.14290985e+00  4.16125097e+00
  4.16367092e+00  4.17729933e+00  4.17855744e+00  4.18523549e+00
  4.19171151e+00  4.19645039e+00  4.21088894e+00  4.21530309e+00
  4.21912265e+00  4.22031826e+00  4.22687702e+00  4.23465823e+00
  4.23952189e+00  4.24257168e+00  4.24601424e+00  4.25224427e+00
  4.26305153e+00  4.26848787e+00  4.26935581e+00  4.27420517e+00
  4.28464258e+00  4.28848787e+00  4.29338903e+00  4.30683661e+00
  4.31055868e+00  4.31278327e+00  4.31916727e+00  4.32229652e+00
  4.32597760e+00  4.33303639e+00  4.33800017e+00  4.34710433e+00
  4.35145293e+00  4.35679727e+00  4.35785500e+00  4.35853743e+00
  4.36553457e+00  4.37776277e+00  4.38636418e+00  4.39993145e+00
  4.40606382e+00  4.41707708e+00  4.42090746e+00  4.42246267e+00
  4.43160258e+00  4.43647196e+00  4.44588675e+00  4.45593843e+00
  4.46124641e+00  4.47162904e+00  4.47525151e+00  4.48550114e+00
  4.49088803e+00  4.49186007e+00  4.49609506e+00  4.50334688e+00
  4.51088382e+00  4.51841533e+00  4.52387571e+00  4.53092287e+00
  4.53669467e+00  4.54311292e+00  4.54837818e+00  4.55655757e+00
  4.57355532e+00  4.57777236e+00  4.59036486e+00  4.60759498e+00
  4.61145088e+00  4.62370845e+00  4.64039313e+00  4.64322072e+00
  4.65555977e+00  4.65853771e+00  4.66130435e+00  4.66681802e+00
  4.67080183e+00  4.68069455e+00  4.69256629e+00  4.70260199e+00
  4.70833369e+00  4.70925225e+00  4.71722087e+00  4.72306383e+00
  4.73332797e+00  4.73612620e+00  4.74599313e+00  4.74628593e+00
  4.75603960e+00  4.76866316e+00  4.78199821e+00  4.78251435e+00
  4.80652755e+00  4.81309774e+00  4.82390192e+00  4.83175720e+00
  4.84103074e+00  4.84703263e+00  4.85603538e+00  4.86095072e+00
  4.86463006e+00  4.89071638e+00  4.89909558e+00  4.90953150e+00
  4.91186322e+00  4.92403859e+00  4.93598734e+00  4.93929619e+00
  4.94290821e+00  4.95708829e+00  4.96231816e+00  4.96977870e+00
  4.97629205e+00  4.98189952e+00  4.98862558e+00  4.99174458e+00
  5.00104462e+00  5.01003527e+00  5.02427717e+00  5.03469215e+00
  5.03672424e+00  5.05003981e+00  5.05845832e+00  5.06433684e+00
  5.06681093e+00  5.07842091e+00  5.08889274e+00  5.09679024e+00
  5.10574342e+00  5.12231725e+00  5.15429056e+00  5.17166577e+00
  5.17640804e+00  5.17871712e+00  5.18751887e+00  5.18898711e+00
  5.21341381e+00  5.21600148e+00  5.22474497e+00  5.23399789e+00
  5.24497754e+00  5.24934990e+00  5.25250641e+00  5.25509763e+00
  5.25705564e+00  5.26494074e+00  5.28355396e+00  5.28832175e+00
  5.29571036e+00  5.31192219e+00  5.32525142e+00  5.33667826e+00
  5.35297853e+00  5.37160571e+00  5.37772209e+00  5.39587768e+00
  5.41209006e+00  5.42478781e+00  5.44833335e+00  5.45326616e+00
  5.46141958e+00  5.47144400e+00  5.47314413e+00  5.48146036e+00
  5.49100667e+00  5.49941034e+00  5.50206455e+00  5.50945840e+00
  5.52669940e+00  5.54596925e+00  5.57293916e+00  5.58575859e+00
  5.59366787e+00  5.59813396e+00  5.60255977e+00  5.60577253e+00
  5.62930743e+00  5.65163688e+00  5.65685121e+00  5.66723383e+00
  5.67259084e+00  5.67815164e+00  5.69487274e+00  5.69902152e+00
  5.73712825e+00  5.75944744e+00  5.76491906e+00  5.78766297e+00
  5.81275007e+00  5.81829456e+00  5.85112717e+00  5.85662509e+00
  5.87192483e+00  5.87795947e+00  5.92485509e+00  5.94456534e+00
  5.94715746e+00  5.97406634e+00  5.98000936e+00  5.99435770e+00
  6.00369656e+00  6.03454968e+00  6.05708100e+00  6.08066137e+00
  6.10169384e+00  6.13765635e+00  6.14812413e+00  6.18083072e+00
  6.22511686e+00  6.24550907e+00  6.24731848e+00  6.28335274e+00
  6.31196486e+00  6.36382246e+00  6.41310653e+00  6.43152934e+00
  6.45325814e+00  6.46750303e+00  6.47392326e+00  6.49727440e+00
  6.58785516e+00  6.58900256e+00  6.63808856e+00  6.64082211e+00
  6.75132132e+00  6.76040256e+00  6.82298378e+00  6.82600439e+00
  6.85152799e+00  6.90145934e+00  6.92179565e+00  6.98471273e+00
  7.01762566e+00  7.04853318e+00  7.17615593e+00  7.20677701e+00
  7.22923091e+00  7.24878811e+00  7.35143076e+00  7.44312381e+00
  2.22895643e+01  2.23432263e+01  2.24376596e+01  2.24461268e+01
  2.24504154e+01  2.24649280e+01  2.25421828e+01  2.25653042e+01
  2.26452748e+01  2.26645287e+01  2.27593310e+01  2.27641898e+01
  2.28182075e+01  2.28334353e+01  2.28509649e+01  2.28651347e+01
  2.28955753e+01  2.29370030e+01  2.29606108e+01  2.30309458e+01
  2.31485813e+01  2.31755729e+01  2.31894321e+01  2.32380394e+01
  2.32943173e+01  2.33030335e+01  2.33160301e+01  2.33878078e+01
  2.34393164e+01  2.34732360e+01  2.36169781e+01  2.36771075e+01
  2.36896011e+01  2.37704831e+01  3.27054800e+01  3.27377206e+01
  3.27590800e+01  3.27905808e+01  4.38560291e+01  4.39123084e+01
  4.39298586e+01  4.40350712e+01]
nelec by numeric integration = 298.0003708627091
    CPU time for vxc    292.01 sec, wall time     19.29 sec
    CPU time for df vj and vk   2094.46 sec, wall time    146.44 sec
    CPU time for df vj and vk   1645.83 sec, wall time    148.71 sec
E1 = -11984.069164902365  Ecoul = 5638.793443059427  Exc = -258.85470985821956
cycle= 1 E= -1836.18335438345  delta_E= 1.5e-08  |g|= 5e-06  |ddm|= 2.95e-05
    CPU time for cycle= 1   4041.13 sec, wall time    316.05 sec
  HOMO = -0.251053930526735  LUMO = -0.0416257760417855
  mo_energy =
[-1.92628818e+01 -1.92391756e+01 -1.91965816e+01 -1.91858034e+01
 -1.44325230e+01 -1.44309701e+01 -1.43619717e+01 -1.43619580e+01
 -1.04059921e+01 -1.03977068e+01 -1.03183110e+01 -1.03152429e+01
 -1.03087953e+01 -1.03072318e+01 -1.02876594e+01 -1.02874004e+01
 -1.02873388e+01 -1.02868395e+01 -1.02849058e+01 -1.02832590e+01
 -1.02827603e+01 -1.02823943e+01 -1.02806027e+01 -1.02799831e+01
 -1.02789431e+01 -1.02787733e+01 -1.02786251e+01 -1.02718272e+01
 -1.02712505e+01 -1.02705662e+01 -1.02692909e+01 -1.02691823e+01
 -1.02684215e+01 -1.02650178e+01 -1.02647192e+01 -1.02640872e+01
 -1.02628589e+01 -1.02625601e+01 -1.02620589e+01 -1.02599890e+01
 -1.02599051e+01 -1.02591149e+01 -1.24590757e+00 -1.23189566e+00
 -1.15468366e+00 -1.13945473e+00 -1.11895477e+00 -1.11240804e+00
 -1.07009910e+00 -1.06330953e+00 -9.61071057e-01 -9.55691105e-01
 -9.53751652e-01 -9.44132957e-01 -9.41572806e-01 -9.27353109e-01
 -9.21643569e-01 -9.04054792e-01 -8.97189682e-01 -8.93668192e-01
 -8.87930339e-01 -8.66831699e-01 -8.56198421e-01 -8.40761102e-01
 -8.38698174e-01 -8.32601724e-01 -8.12360286e-01 -7.90091196e-01
 -7.87541730e-01 -7.76157981e-01 -7.67276712e-01 -7.47600115e-01
 -7.36713049e-01 -7.16593909e-01 -7.10120648e-01 -7.01127390e-01
 -6.95567554e-01 -6.79034084e-01 -6.71833337e-01 -6.61701426e-01
 -6.50628325e-01 -6.48863198e-01 -6.33871452e-01 -6.27494611e-01
 -6.23683823e-01 -6.23021017e-01 -6.15390555e-01 -6.10359035e-01
 -6.08020488e-01 -5.99407973e-01 -5.94346792e-01 -5.91396580e-01
 -5.88049049e-01 -5.77045841e-01 -5.75545190e-01 -5.69979709e-01
 -5.64547718e-01 -5.58178381e-01 -5.54908839e-01 -5.48256638e-01
 -5.45474928e-01 -5.43091257e-01 -5.42105025e-01 -5.40170288e-01
 -5.37745628e-01 -5.31119412e-01 -5.28508571e-01 -5.26161659e-01
 -5.22068974e-01 -5.17791533e-01 -5.15975629e-01 -5.13351493e-01
 -5.09743257e-01 -5.05862599e-01 -5.04181318e-01 -5.02393133e-01
 -4.99927879e-01 -4.94035590e-01 -4.91906634e-01 -4.89716925e-01
 -4.85593483e-01 -4.82500377e-01 -4.76070533e-01 -4.73772874e-01
 -4.71317953e-01 -4.65043250e-01 -4.58448234e-01 -4.54727493e-01
 -4.51016320e-01 -4.47622824e-01 -4.45477436e-01 -4.43754027e-01
 -4.39720748e-01 -4.36007225e-01 -4.26612451e-01 -4.18476700e-01
 -4.09509582e-01 -3.98795892e-01 -3.89740793e-01 -3.76899911e-01
 -3.72461138e-01 -3.68461159e-01 -3.52315640e-01 -3.33723667e-01
 -3.27814751e-01 -3.22004670e-01 -3.16406433e-01 -2.57971605e-01
 -2.51053931e-01 -4.16257760e-02 -3.79778640e-02  3.56300562e-02
  5.86802597e-02  7.94337997e-02  8.17243134e-02  8.83612171e-02
  1.04130061e-01  1.07323355e-01  1.13297216e-01  1.17039621e-01
  1.18260370e-01  1.21364003e-01  1.35040320e-01  1.39822942e-01
  1.42034197e-01  1.46764381e-01  1.48794836e-01  1.52892271e-01
  1.53255394e-01  1.54595969e-01  1.60438421e-01  1.61741922e-01
  1.62851235e-01  1.64376407e-01  1.70394433e-01  1.72768600e-01
  1.77551084e-01  1.83373717e-01  1.87930013e-01  1.89121286e-01
  1.92435132e-01  1.95337484e-01  1.96054718e-01  1.98018465e-01
  2.00473160e-01  2.03546380e-01  2.05097887e-01  2.09660247e-01
  2.13618141e-01  2.17644959e-01  2.18919727e-01  2.21389081e-01
  2.22951308e-01  2.25923477e-01  2.29478921e-01  2.30280417e-01
  2.32626572e-01  2.33391721e-01  2.35813225e-01  2.39223967e-01
  2.40738251e-01  2.44144683e-01  2.44861907e-01  2.48797085e-01
  2.52316129e-01  2.53740885e-01  2.56127340e-01  2.59557565e-01
  2.64151021e-01  2.67303200e-01  2.69910372e-01  2.72462184e-01
  2.74974049e-01  2.77886624e-01  2.80049491e-01  2.82412802e-01
  2.83249816e-01  2.89576996e-01  2.90832861e-01  2.93495448e-01
  2.94309868e-01  2.96574768e-01  3.00160074e-01  3.02395520e-01
  3.07933060e-01  3.09841591e-01  3.11622021e-01  3.12240631e-01
  3.15255454e-01  3.18884461e-01  3.20681235e-01  3.27361966e-01
  3.31260818e-01  3.33284177e-01  3.35619471e-01  3.37655366e-01
  3.40274289e-01  3.42700550e-01  3.44740404e-01  3.45601821e-01
  3.46374216e-01  3.51985606e-01  3.53928217e-01  3.57687094e-01
  3.59407300e-01  3.62169534e-01  3.64303572e-01  3.66451313e-01
  3.69746868e-01  3.71330998e-01  3.78271457e-01  3.81412693e-01
  3.83884849e-01  3.85499875e-01  3.87782918e-01  3.90416695e-01
  3.92999818e-01  3.95680824e-01  3.96480886e-01  4.02232195e-01
  4.02907586e-01  4.05581266e-01  4.08730578e-01  4.12783677e-01
  4.18834446e-01  4.19217408e-01  4.21748533e-01  4.24708529e-01
  4.27439900e-01  4.30412422e-01  4.31288466e-01  4.35481871e-01
  4.37482844e-01  4.39054798e-01  4.40734503e-01  4.45161685e-01
  4.47763182e-01  4.50145614e-01  4.52102685e-01  4.52996531e-01
  4.55690952e-01  4.59681529e-01  4.61237126e-01  4.63523295e-01
  4.65807006e-01  4.69203059e-01  4.73447818e-01  4.76197094e-01
  4.76406427e-01  4.78841687e-01  4.81642455e-01  4.83224660e-01
  4.84425780e-01  4.90752797e-01  4.93709616e-01  4.94519863e-01
  4.97379109e-01  4.98380085e-01  5.00159465e-01  5.01834164e-01
  5.04232996e-01  5.05261893e-01  5.10174416e-01  5.11902964e-01
  5.14687504e-01  5.17935947e-01  5.19511083e-01  5.21298069e-01
  5.21549359e-01  5.25844634e-01  5.29798963e-01  5.31772270e-01
  5.33362229e-01  5.34050997e-01  5.35575230e-01  5.40144444e-01
  5.41755619e-01  5.44014914e-01  5.48180334e-01  5.49209482e-01
  5.54277754e-01  5.55719588e-01  5.57224053e-01  5.59767784e-01
  5.61509940e-01  5.64512869e-01  5.65413573e-01  5.68027329e-01
  5.70692430e-01  5.71726688e-01  5.74554307e-01  5.76799054e-01
  5.78547084e-01  5.80439503e-01  5.83208212e-01  5.86965330e-01
  5.87895286e-01  5.90442387e-01  5.94367483e-01  5.96485472e-01
  5.98610842e-01  6.03006450e-01  6.04120828e-01  6.08305095e-01
  6.10270989e-01  6.13260838e-01  6.17819066e-01  6.22444299e-01
  6.23228357e-01  6.25604650e-01  6.26814663e-01  6.30880987e-01
  6.32344531e-01  6.41430781e-01  6.42827391e-01  6.43995432e-01
  6.47294916e-01  6.49294927e-01  6.53016198e-01  6.55128700e-01
  6.57905776e-01  6.59573080e-01  6.63833738e-01  6.67878304e-01
  6.70890996e-01  6.74279669e-01  6.75662235e-01  6.79958580e-01
  6.84360444e-01  6.89259036e-01  6.89304883e-01  6.91323875e-01
  6.95965404e-01  6.99846132e-01  7.02636321e-01  7.05001101e-01
  7.07525199e-01  7.10123886e-01  7.12402788e-01  7.15344478e-01
  7.16270138e-01  7.18054845e-01  7.22137704e-01  7.23666863e-01
  7.26398969e-01  7.29715069e-01  7.33142208e-01  7.37797599e-01
  7.39541936e-01  7.40531293e-01  7.44776361e-01  7.47080670e-01
  7.48662977e-01  7.53756997e-01  7.54699465e-01  7.58631770e-01
  7.62905029e-01  7.65127571e-01  7.65787304e-01  7.68246465e-01
  7.72567898e-01  7.74032146e-01  7.80443724e-01  7.82803609e-01
  7.84702538e-01  7.89264478e-01  7.92221910e-01  7.93783447e-01
  7.96492617e-01  8.01978826e-01  8.03005204e-01  8.04034314e-01
  8.10822071e-01  8.13895873e-01  8.18341714e-01  8.21412237e-01
  8.24366306e-01  8.28259073e-01  8.30175172e-01  8.34892967e-01
  8.40658690e-01  8.42033597e-01  8.44291898e-01  8.45116796e-01
  8.49984895e-01  8.56510741e-01  8.59688704e-01  8.63887017e-01
  8.66097364e-01  8.67822380e-01  8.73061604e-01  8.76579085e-01
  8.80821917e-01  8.86386308e-01  8.89084809e-01  8.93226532e-01
  8.97956925e-01  8.98783349e-01  9.03171690e-01  9.06180088e-01
  9.10529449e-01  9.16205043e-01  9.19831396e-01  9.23182233e-01
  9.24814543e-01  9.28259890e-01  9.29603306e-01  9.36033429e-01
  9.39031324e-01  9.46198297e-01  9.49718466e-01  9.52159416e-01
  9.54424432e-01  9.63066045e-01  9.65586634e-01  9.67254305e-01
  9.73138936e-01  9.76080887e-01  9.81539096e-01  9.86113817e-01
  9.89725589e-01  9.92461674e-01  9.94273058e-01  9.96474526e-01
  1.00206813e+00  1.01285428e+00  1.01405034e+00  1.01741436e+00
  1.01980635e+00  1.02382470e+00  1.02793562e+00  1.03037520e+00
  1.03102583e+00  1.03556484e+00  1.03825603e+00  1.04343337e+00
  1.04590795e+00  1.05143974e+00  1.05283610e+00  1.05358736e+00
  1.05991135e+00  1.06547875e+00  1.06646524e+00  1.06831030e+00
  1.07288068e+00  1.07392530e+00  1.08205952e+00  1.08428224e+00
  1.08794637e+00  1.09059418e+00  1.09458234e+00  1.09669583e+00
  1.10426382e+00  1.11056542e+00  1.11700626e+00  1.12168656e+00
  1.12694026e+00  1.12860659e+00  1.13100092e+00  1.13350162e+00
  1.13711940e+00  1.14097955e+00  1.14748858e+00  1.15346849e+00
  1.15555947e+00  1.16048624e+00  1.16261978e+00  1.16623334e+00
  1.17177621e+00  1.17475140e+00  1.17680751e+00  1.17861996e+00
  1.18501262e+00  1.18798289e+00  1.19357632e+00  1.20028267e+00
  1.20405723e+00  1.20822725e+00  1.21483174e+00  1.21798568e+00
  1.22155177e+00  1.22261389e+00  1.22543032e+00  1.23101547e+00
  1.23827827e+00  1.24287225e+00  1.24788742e+00  1.25025191e+00
  1.25309772e+00  1.26299002e+00  1.26416181e+00  1.26935130e+00
  1.27604623e+00  1.27899934e+00  1.28453152e+00  1.28811196e+00
  1.29169238e+00  1.29313028e+00  1.30030923e+00  1.30652968e+00
  1.31104967e+00  1.31573448e+00  1.31695046e+00  1.32116637e+00
  1.32486905e+00  1.33019713e+00  1.33752010e+00  1.33951541e+00
  1.34212254e+00  1.34763696e+00  1.35296012e+00  1.35545410e+00
  1.36717356e+00  1.37144437e+00  1.37387274e+00  1.37556231e+00
  1.37800891e+00  1.38224203e+00  1.38891287e+00  1.39187117e+00
  1.40164069e+00  1.40425463e+00  1.41187381e+00  1.41475010e+00
  1.41637208e+00  1.42006286e+00  1.42224479e+00  1.42690757e+00
  1.43436654e+00  1.44069995e+00  1.44439154e+00  1.44994953e+00
  1.45381860e+00  1.45783565e+00  1.46377148e+00  1.46735985e+00
  1.46963150e+00  1.47584229e+00  1.47997228e+00  1.48888658e+00
  1.49269865e+00  1.49546253e+00  1.50057838e+00  1.50916309e+00
  1.51284537e+00  1.51808533e+00  1.51899366e+00  1.52697150e+00
  1.53371575e+00  1.53904052e+00  1.54059288e+00  1.54196981e+00
  1.54662837e+00  1.55070189e+00  1.55368898e+00  1.55673143e+00
  1.56238900e+00  1.56428369e+00  1.57003960e+00  1.57278963e+00
  1.58275019e+00  1.58863866e+00  1.59273089e+00  1.59410547e+00
  1.59929113e+00  1.60530448e+00  1.60837239e+00  1.61319148e+00
  1.61775426e+00  1.62165181e+00  1.62750587e+00  1.63404495e+00
  1.63599841e+00  1.64260975e+00  1.64436865e+00  1.64492745e+00
  1.64734950e+00  1.65053775e+00  1.65470798e+00  1.65623146e+00
  1.65872722e+00  1.66317031e+00  1.66541872e+00  1.66732192e+00
  1.67219423e+00  1.67471443e+00  1.67534495e+00  1.67728876e+00
  1.68072017e+00  1.68413268e+00  1.68590379e+00  1.68933367e+00
  1.69141411e+00  1.69377254e+00  1.69492801e+00  1.69874540e+00
  1.70382730e+00  1.70723078e+00  1.70892439e+00  1.71438811e+00
  1.71528831e+00  1.71865442e+00  1.72212347e+00  1.72449848e+00
  1.72758729e+00  1.73185652e+00  1.73448027e+00  1.73918522e+00
  1.74416310e+00  1.74613968e+00  1.74889676e+00  1.75248595e+00
  1.75348217e+00  1.75719380e+00  1.76171378e+00  1.76360130e+00
  1.76727367e+00  1.77096461e+00  1.77202089e+00  1.77549757e+00
  1.78484470e+00  1.78703821e+00  1.79375688e+00  1.79603891e+00
  1.79835536e+00  1.80474920e+00  1.80893531e+00  1.81178227e+00
  1.81477287e+00  1.81979482e+00  1.82242923e+00  1.82770525e+00
  1.82922965e+00  1.83424851e+00  1.83724844e+00  1.83899823e+00
  1.84474407e+00  1.85197781e+00  1.85678590e+00  1.85934050e+00
  1.86374450e+00  1.86753119e+00  1.87058360e+00  1.88190338e+00
  1.88517443e+00  1.88887630e+00  1.89484158e+00  1.89818010e+00
  1.90421669e+00  1.90684404e+00  1.91442775e+00  1.92296124e+00
  1.92464721e+00  1.92847452e+00  1.93373569e+00  1.93518393e+00
  1.94056137e+00  1.94313531e+00  1.94652273e+00  1.94968204e+00
  1.95185791e+00  1.95686982e+00  1.96102588e+00  1.96634702e+00
  1.96884485e+00  1.97003555e+00  1.97262012e+00  1.97454557e+00
  1.98330545e+00  1.98542482e+00  1.99187857e+00  1.99737402e+00
  2.00047833e+00  2.00713887e+00  2.01074201e+00  2.01554157e+00
  2.01943871e+00  2.02500798e+00  2.02735353e+00  2.03004714e+00
  2.03849471e+00  2.04316126e+00  2.04540105e+00  2.05093492e+00
  2.05381987e+00  2.06276643e+00  2.06806389e+00  2.07536230e+00
  2.08228907e+00  2.08674363e+00  2.09176364e+00  2.09353747e+00
  2.09964349e+00  2.10568290e+00  2.11383146e+00  2.11784956e+00
  2.12086749e+00  2.12622998e+00  2.13219843e+00  2.13599626e+00
  2.14494861e+00  2.14589155e+00  2.14932835e+00  2.15310647e+00
  2.15604150e+00  2.16069532e+00  2.16240482e+00  2.17017576e+00
  2.17276300e+00  2.17734465e+00  2.17866818e+00  2.18093063e+00
  2.18562581e+00  2.18930366e+00  2.19241835e+00  2.19727792e+00
  2.20146010e+00  2.20546195e+00  2.20769728e+00  2.21294863e+00
  2.21465378e+00  2.22117129e+00  2.22593837e+00  2.23313771e+00
  2.23715016e+00  2.23981922e+00  2.24274691e+00  2.24490118e+00
  2.25087507e+00  2.25961026e+00  2.26108093e+00  2.26568600e+00
  2.26949832e+00  2.27255714e+00  2.27790748e+00  2.28534800e+00
  2.29208987e+00  2.29896376e+00  2.30247941e+00  2.30546231e+00
  2.31475261e+00  2.31640089e+00  2.32128670e+00  2.32984429e+00
  2.33229578e+00  2.33793065e+00  2.34604092e+00  2.34824859e+00
  2.35523133e+00  2.35710656e+00  2.35946537e+00  2.36978230e+00
  2.37341640e+00  2.37462781e+00  2.38156069e+00  2.38350154e+00
  2.39108350e+00  2.39815550e+00  2.40035625e+00  2.40479135e+00
  2.40890533e+00  2.41220361e+00  2.42047488e+00  2.42528260e+00
  2.42731253e+00  2.42965781e+00  2.43565456e+00  2.43872356e+00
  2.44600276e+00  2.45256036e+00  2.45381060e+00  2.46007844e+00
  2.46124295e+00  2.46546495e+00  2.46905175e+00  2.47154577e+00
  2.47293587e+00  2.48052312e+00  2.48367738e+00  2.48649957e+00
  2.49117717e+00  2.49490142e+00  2.50212612e+00  2.50739622e+00
  2.50959234e+00  2.51491064e+00  2.51820904e+00  2.52090493e+00
  2.52671781e+00  2.52858171e+00  2.53811063e+00  2.54299082e+00
  2.54348604e+00  2.54759018e+00  2.55349653e+00  2.55771283e+00
  2.56045119e+00  2.56627408e+00  2.56712489e+00  2.57311352e+00
  2.58373946e+00  2.58712801e+00  2.59444793e+00  2.59865773e+00
  2.60309242e+00  2.60809775e+00  2.61621378e+00  2.62396050e+00
  2.62559795e+00  2.62761556e+00  2.63293717e+00  2.63576325e+00
  2.64229035e+00  2.64427039e+00  2.64589094e+00  2.64951653e+00
  2.65452666e+00  2.65604309e+00  2.65887777e+00  2.66317255e+00
  2.66710571e+00  2.67023647e+00  2.67779741e+00  2.68110196e+00
  2.68237494e+00  2.68957142e+00  2.69125868e+00  2.69468244e+00
  2.70312617e+00  2.71115512e+00  2.71242975e+00  2.71459475e+00
  2.71969700e+00  2.72445478e+00  2.72924910e+00  2.73486835e+00
  2.73897118e+00  2.73951653e+00  2.74483270e+00  2.74788554e+00
  2.75130445e+00  2.75409957e+00  2.76060811e+00  2.76254669e+00
  2.76502194e+00  2.77173398e+00  2.77518450e+00  2.78154718e+00
  2.78165151e+00  2.78585375e+00  2.78942716e+00  2.80002048e+00
  2.80273050e+00  2.80597306e+00  2.81033752e+00  2.81460241e+00
  2.81744087e+00  2.82787403e+00  2.83126497e+00  2.83554347e+00
  2.84120539e+00  2.84290644e+00  2.84585757e+00  2.84807952e+00
  2.85095267e+00  2.85490764e+00  2.86134480e+00  2.86224194e+00
  2.86860925e+00  2.86917516e+00  2.87571594e+00  2.87924557e+00
  2.88057345e+00  2.88850746e+00  2.89174126e+00  2.89356812e+00
  2.90342198e+00  2.90446897e+00  2.90897839e+00  2.91080504e+00
  2.91607804e+00  2.91917141e+00  2.92879964e+00  2.93011741e+00
  2.93206671e+00  2.94012800e+00  2.94193702e+00  2.94724068e+00
  2.94962305e+00  2.95276348e+00  2.95857274e+00  2.96226567e+00
  2.96731475e+00  2.97046085e+00  2.97420359e+00  2.97731257e+00
  2.97824951e+00  2.98659519e+00  2.99012332e+00  2.99386388e+00
  2.99863277e+00  3.00469133e+00  3.00778470e+00  3.01104501e+00
  3.01212686e+00  3.01743835e+00  3.02704486e+00  3.02797546e+00
  3.03572106e+00  3.03621617e+00  3.03848860e+00  3.04176565e+00
  3.04865558e+00  3.05353485e+00  3.05540853e+00  3.06097930e+00
  3.06521749e+00  3.07018277e+00  3.07097863e+00  3.07512194e+00
  3.07669276e+00  3.08045854e+00  3.08598323e+00  3.08931282e+00
  3.09263288e+00  3.09556486e+00  3.09988539e+00  3.10406879e+00
  3.10753982e+00  3.10911465e+00  3.11052082e+00  3.11243741e+00
  3.11625965e+00  3.12105183e+00  3.12288141e+00  3.12596030e+00
  3.12915620e+00  3.13108520e+00  3.13579820e+00  3.14185109e+00
  3.14294813e+00  3.14798132e+00  3.15181112e+00  3.15652923e+00
  3.16075434e+00  3.16221156e+00  3.16531518e+00  3.16722702e+00
  3.17435951e+00  3.17619557e+00  3.17697495e+00  3.17837874e+00
  3.18372377e+00  3.18800773e+00  3.19320575e+00  3.19640563e+00
  3.19819970e+00  3.20253364e+00  3.20406839e+00  3.21283249e+00
  3.21473941e+00  3.21682761e+00  3.22403556e+00  3.22700888e+00
  3.22989072e+00  3.23344877e+00  3.23452572e+00  3.23696068e+00
  3.24166108e+00  3.24433661e+00  3.24689043e+00  3.25060447e+00
  3.25233587e+00  3.25644920e+00  3.25841031e+00  3.26125087e+00
  3.26280999e+00  3.26369973e+00  3.27086070e+00  3.27126933e+00
  3.27585687e+00  3.28061962e+00  3.28335721e+00  3.28591926e+00
  3.29094877e+00  3.29346559e+00  3.29475586e+00  3.30005873e+00
  3.30386302e+00  3.30494330e+00  3.31076187e+00  3.31230130e+00
  3.31404573e+00  3.31811125e+00  3.32003942e+00  3.32332292e+00
  3.32561649e+00  3.32859315e+00  3.33600693e+00  3.33729820e+00
  3.34133231e+00  3.34605875e+00  3.34838939e+00  3.35068260e+00
  3.35506289e+00  3.35735981e+00  3.36099004e+00  3.36282807e+00
  3.36826113e+00  3.37265011e+00  3.37661182e+00  3.38093218e+00
  3.38224092e+00  3.38731234e+00  3.38834963e+00  3.39056518e+00
  3.39270629e+00  3.39563108e+00  3.39974939e+00  3.40203873e+00
  3.40410751e+00  3.40597296e+00  3.40750492e+00  3.41006561e+00
  3.41136279e+00  3.41309219e+00  3.41463573e+00  3.41691012e+00
  3.41928888e+00  3.42034347e+00  3.42555886e+00  3.42644407e+00
  3.42883758e+00  3.43243008e+00  3.43801759e+00  3.44214384e+00
  3.44764495e+00  3.44857643e+00  3.44984144e+00  3.45247515e+00
  3.45668945e+00  3.45869820e+00  3.46260448e+00  3.46503939e+00
  3.47052510e+00  3.47270352e+00  3.47635360e+00  3.47962757e+00
  3.48121028e+00  3.48475593e+00  3.49102418e+00  3.49522148e+00
  3.50066247e+00  3.50143177e+00  3.50572334e+00  3.51048107e+00
  3.51197234e+00  3.51307831e+00  3.51940303e+00  3.52111914e+00
  3.52370363e+00  3.53016929e+00  3.53371800e+00  3.53741612e+00
  3.54498582e+00  3.54811808e+00  3.55235761e+00  3.55771913e+00
  3.56132546e+00  3.56255549e+00  3.57177863e+00  3.57685127e+00
  3.57797697e+00  3.58226677e+00  3.58558873e+00  3.59445266e+00
  3.59810628e+00  3.60094540e+00  3.60551801e+00  3.60767824e+00
  3.61233686e+00  3.62242732e+00  3.62681409e+00  3.63143203e+00
  3.63617002e+00  3.64162174e+00  3.64771275e+00  3.65006155e+00
  3.65469278e+00  3.65620024e+00  3.66015071e+00  3.66240375e+00
  3.66595118e+00  3.66879699e+00  3.67187635e+00  3.67713905e+00
  3.68185300e+00  3.68768669e+00  3.69230375e+00  3.69964463e+00
  3.70072924e+00  3.70212275e+00  3.71010093e+00  3.71838617e+00
  3.72071523e+00  3.72721122e+00  3.73874907e+00  3.74001866e+00
  3.74442419e+00  3.74529637e+00  3.75387656e+00  3.75398600e+00
  3.76274409e+00  3.76698573e+00  3.77203383e+00  3.77600016e+00
  3.78119171e+00  3.78462130e+00  3.78635269e+00  3.79283126e+00
  3.79869984e+00  3.80286801e+00  3.80668327e+00  3.80909122e+00
  3.81440515e+00  3.82240585e+00  3.82582980e+00  3.82963926e+00
  3.83585779e+00  3.83833622e+00  3.84625755e+00  3.84813382e+00
  3.85466347e+00  3.85585091e+00  3.85948559e+00  3.86947750e+00
  3.87167433e+00  3.87790682e+00  3.88211465e+00  3.89010592e+00
  3.89771517e+00  3.90068924e+00  3.90619557e+00  3.91492378e+00
  3.92117307e+00  3.92312436e+00  3.92633767e+00  3.93869531e+00
  3.94355029e+00  3.94485491e+00  3.95229939e+00  3.95613574e+00
  3.96292784e+00  3.97778403e+00  3.98083231e+00  3.99559986e+00
  3.99932317e+00  4.00242231e+00  4.01105125e+00  4.02620994e+00
  4.02689783e+00  4.03295245e+00  4.03434680e+00  4.03727861e+00
  4.03970366e+00  4.04529000e+00  4.04944765e+00  4.05399991e+00
  4.06625253e+00  4.07182033e+00  4.07650358e+00  4.08162118e+00
  4.08262716e+00  4.08782677e+00  4.09400088e+00  4.10605297e+00
  4.11284153e+00  4.11679468e+00  4.12221563e+00  4.13024379e+00
  4.13589381e+00  4.13744562e+00  4.14290994e+00  4.16125098e+00
  4.16367104e+00  4.17729950e+00  4.17855762e+00  4.18523567e+00
  4.19171166e+00  4.19645051e+00  4.21088908e+00  4.21530320e+00
  4.21912286e+00  4.22031836e+00  4.22687715e+00  4.23465839e+00
  4.23952201e+00  4.24257191e+00  4.24601450e+00  4.25224439e+00
  4.26305168e+00  4.26848798e+00  4.26935596e+00  4.27420524e+00
  4.28464274e+00  4.28848796e+00  4.29338909e+00  4.30683660e+00
  4.31055876e+00  4.31278337e+00  4.31916741e+00  4.32229665e+00
  4.32597775e+00  4.33303672e+00  4.33800026e+00  4.34710434e+00
  4.35145299e+00  4.35679736e+00  4.35785508e+00  4.35853755e+00
  4.36553461e+00  4.37776281e+00  4.38636422e+00  4.39993150e+00
  4.40606383e+00  4.41707711e+00  4.42090748e+00  4.42246273e+00
  4.43160268e+00  4.43647201e+00  4.44588682e+00  4.45593844e+00
  4.46124646e+00  4.47162903e+00  4.47525149e+00  4.48550114e+00
  4.49088811e+00  4.49186014e+00  4.49609507e+00  4.50334690e+00
  4.51088385e+00  4.51841535e+00  4.52387568e+00  4.53092289e+00
  4.53669475e+00  4.54311286e+00  4.54837824e+00  4.55655761e+00
  4.57355539e+00  4.57777235e+00  4.59036483e+00  4.60759499e+00
  4.61145088e+00  4.62370848e+00  4.64039316e+00  4.64322076e+00
  4.65555987e+00  4.65853784e+00  4.66130445e+00  4.66681808e+00
  4.67080196e+00  4.68069464e+00  4.69256637e+00  4.70260205e+00
  4.70833377e+00  4.70925234e+00  4.71722104e+00  4.72306397e+00
  4.73332809e+00  4.73612637e+00  4.74599323e+00  4.74628599e+00
  4.75603974e+00  4.76866323e+00  4.78199869e+00  4.78251442e+00
  4.80652766e+00  4.81309784e+00  4.82390212e+00  4.83175721e+00
  4.84103085e+00  4.84703269e+00  4.85603552e+00  4.86095087e+00
  4.86463019e+00  4.89071656e+00  4.89909574e+00  4.90953182e+00
  4.91186362e+00  4.92403878e+00  4.93598759e+00  4.93929663e+00
  4.94290845e+00  4.95708849e+00  4.96231858e+00  4.96977899e+00
  4.97629233e+00  4.98189990e+00  4.98862602e+00  4.99174493e+00
  5.00104512e+00  5.01003605e+00  5.02427736e+00  5.03469232e+00
  5.03672444e+00  5.05004050e+00  5.05845882e+00  5.06433736e+00
  5.06681171e+00  5.07842105e+00  5.08889288e+00  5.09679037e+00
  5.10574352e+00  5.12231743e+00  5.15429070e+00  5.17166591e+00
  5.17640855e+00  5.17871719e+00  5.18751923e+00  5.18898740e+00
  5.21341391e+00  5.21600161e+00  5.22474509e+00  5.23399813e+00
  5.24497764e+00  5.24935067e+00  5.25250623e+00  5.25509814e+00
  5.25705582e+00  5.26494064e+00  5.28355334e+00  5.28832171e+00
  5.29571008e+00  5.31192191e+00  5.32525146e+00  5.33667794e+00
  5.35297873e+00  5.37160627e+00  5.37772258e+00  5.39587805e+00
  5.41209038e+00  5.42478794e+00  5.44833379e+00  5.45326657e+00
  5.46142036e+00  5.47144461e+00  5.47314461e+00  5.48146081e+00
  5.49100703e+00  5.49941049e+00  5.50206474e+00  5.50945858e+00
  5.52669980e+00  5.54596944e+00  5.57293938e+00  5.58575868e+00
  5.59366790e+00  5.59813428e+00  5.60255990e+00  5.60577274e+00
  5.62930776e+00  5.65163726e+00  5.65685141e+00  5.66723385e+00
  5.67259099e+00  5.67815195e+00  5.69487285e+00  5.69902156e+00
  5.73712876e+00  5.75944818e+00  5.76491956e+00  5.78766336e+00
  5.81275047e+00  5.81829469e+00  5.85112764e+00  5.85662553e+00
  5.87192501e+00  5.87795985e+00  5.92485511e+00  5.94456569e+00
  5.94715776e+00  5.97406668e+00  5.98000983e+00  5.99435822e+00
  6.00369678e+00  6.03455039e+00  6.05708149e+00  6.08066193e+00
  6.10169436e+00  6.13765713e+00  6.14812483e+00  6.18083135e+00
  6.22511689e+00  6.24550886e+00  6.24731881e+00  6.28335230e+00
  6.31196514e+00  6.36382292e+00  6.41310694e+00  6.43152887e+00
  6.45325743e+00  6.46750305e+00  6.47392230e+00  6.49727475e+00
  6.58785416e+00  6.58900196e+00  6.63808803e+00  6.64082231e+00
  6.75132128e+00  6.76040265e+00  6.82298419e+00  6.82600474e+00
  6.85152800e+00  6.90145909e+00  6.92179488e+00  6.98471197e+00
  7.01762593e+00  7.04853342e+00  7.17615501e+00  7.20677621e+00
  7.22923023e+00  7.24878773e+00  7.35143109e+00  7.44312420e+00
  2.22895642e+01  2.23432263e+01  2.24376595e+01  2.24461267e+01
  2.24504154e+01  2.24649279e+01  2.25421835e+01  2.25653048e+01
  2.26452747e+01  2.26645284e+01  2.27593309e+01  2.27641896e+01
  2.28182074e+01  2.28334352e+01  2.28509649e+01  2.28651347e+01
  2.28955753e+01  2.29370029e+01  2.29606107e+01  2.30309458e+01
  2.31485812e+01  2.31755729e+01  2.31894325e+01  2.32380392e+01
  2.32943175e+01  2.33030338e+01  2.33160300e+01  2.33878077e+01
  2.34393163e+01  2.34732358e+01  2.36169779e+01  2.36771074e+01
  2.36896010e+01  2.37704831e+01  3.27054819e+01  3.27377221e+01
  3.27590818e+01  3.27905823e+01  4.38560300e+01  4.39123072e+01
  4.39298580e+01  4.40350699e+01]
nelec by numeric integration = 298.0003708627743
    CPU time for vxc    295.07 sec, wall time     19.44 sec
    CPU time for df vj and vk   2118.90 sec, wall time    148.50 sec
    CPU time for df vj and vk   1532.29 sec, wall time    156.75 sec
E1 = -11984.069131556505  Ecoul = 5638.79340934467  Exc = -258.8547094893196
cycle= 2 E= -1836.18335438344  delta_E= 2.73e-12  |g|= 6.58e-06  |ddm|= 1.59e-05
    CPU time for cycle= 2   3956.97 sec, wall time    328.95 sec
  HOMO = -0.251054072106892  LUMO = -0.0416259454585703
  mo_energy =
[-1.92628835e+01 -1.92391769e+01 -1.91965777e+01 -1.91858007e+01
 -1.44325248e+01 -1.44309718e+01 -1.43619747e+01 -1.43619610e+01
 -1.04059931e+01 -1.03977077e+01 -1.03183111e+01 -1.03152429e+01
 -1.03087954e+01 -1.03072325e+01 -1.02876595e+01 -1.02874005e+01
 -1.02873393e+01 -1.02868393e+01 -1.02849051e+01 -1.02832588e+01
 -1.02827599e+01 -1.02823938e+01 -1.02806034e+01 -1.02799828e+01
 -1.02789426e+01 -1.02787741e+01 -1.02786247e+01 -1.02718275e+01
 -1.02712507e+01 -1.02705661e+01 -1.02692906e+01 -1.02691821e+01
 -1.02684216e+01 -1.02650173e+01 -1.02647191e+01 -1.02640869e+01
 -1.02628585e+01 -1.02625601e+01 -1.02620586e+01 -1.02599883e+01
 -1.02599049e+01 -1.02591149e+01 -1.24590780e+00 -1.23189591e+00
 -1.15468309e+00 -1.13945445e+00 -1.11895538e+00 -1.11240865e+00
 -1.07009986e+00 -1.06331029e+00 -9.61071108e-01 -9.55690995e-01
 -9.53751741e-01 -9.44133031e-01 -9.41572964e-01 -9.27353318e-01
 -9.21643656e-01 -9.04054897e-01 -8.97189839e-01 -8.93668297e-01
 -8.87930302e-01 -8.66831895e-01 -8.56198502e-01 -8.40761088e-01
 -8.38698271e-01 -8.32601756e-01 -8.12360448e-01 -7.90091411e-01
 -7.87541899e-01 -7.76158105e-01 -7.67276863e-01 -7.47600253e-01
 -7.36713128e-01 -7.16594278e-01 -7.10121065e-01 -7.01127546e-01
 -6.95567789e-01 -6.79034292e-01 -6.71833425e-01 -6.61701688e-01
 -6.50628524e-01 -6.48863400e-01 -6.33871554e-01 -6.27494655e-01
 -6.23683807e-01 -6.23021052e-01 -6.15390588e-01 -6.10359056e-01
 -6.08020596e-01 -5.99407879e-01 -5.94346905e-01 -5.91396663e-01
 -5.88049146e-01 -5.77045935e-01 -5.75545240e-01 -5.69979860e-01
 -5.64547817e-01 -5.58178536e-01 -5.54908890e-01 -5.48256628e-01
 -5.45474811e-01 -5.43091295e-01 -5.42105047e-01 -5.40170413e-01
 -5.37745712e-01 -5.31119334e-01 -5.28508543e-01 -5.26161660e-01
 -5.22069039e-01 -5.17791559e-01 -5.15975773e-01 -5.13351600e-01
 -5.09743219e-01 -5.05862682e-01 -5.04181369e-01 -5.02393152e-01
 -4.99928017e-01 -4.94035705e-01 -4.91906796e-01 -4.89717027e-01
 -4.85593708e-01 -4.82500398e-01 -4.76070557e-01 -4.73773189e-01
 -4.71318099e-01 -4.65043372e-01 -4.58448359e-01 -4.54727478e-01
 -4.51016154e-01 -4.47622656e-01 -4.45477390e-01 -4.43753942e-01
 -4.39720637e-01 -4.36007306e-01 -4.26612271e-01 -4.18476686e-01
 -4.09509595e-01 -3.98794942e-01 -3.89740171e-01 -3.76900945e-01
 -3.72461373e-01 -3.68461373e-01 -3.52316744e-01 -3.33723826e-01
 -3.27814750e-01 -3.22004908e-01 -3.16406752e-01 -2.57971962e-01
 -2.51054072e-01 -4.16259455e-02 -3.79780110e-02  3.56300770e-02
  5.86803275e-02  7.94338588e-02  8.17242951e-02  8.83612425e-02
  1.04129999e-01  1.07323304e-01  1.13297211e-01  1.17039595e-01
  1.18260254e-01  1.21363851e-01  1.35040247e-01  1.39822933e-01
  1.42034146e-01  1.46764222e-01  1.48794849e-01  1.52892209e-01
  1.53255379e-01  1.54596003e-01  1.60438427e-01  1.61741888e-01
  1.62851227e-01  1.64376356e-01  1.70394384e-01  1.72768506e-01
  1.77551053e-01  1.83373687e-01  1.87929934e-01  1.89121220e-01
  1.92435035e-01  1.95337449e-01  1.96054688e-01  1.98018309e-01
  2.00473091e-01  2.03546253e-01  2.05097788e-01  2.09660132e-01
  2.13618083e-01  2.17644882e-01  2.18919632e-01  2.21388970e-01
  2.22951252e-01  2.25923475e-01  2.29478876e-01  2.30280361e-01
  2.32626443e-01  2.33391743e-01  2.35813197e-01  2.39223934e-01
  2.40738257e-01  2.44144598e-01  2.44861900e-01  2.48797028e-01
  2.52316113e-01  2.53740823e-01  2.56127314e-01  2.59557520e-01
  2.64151006e-01  2.67303108e-01  2.69910388e-01  2.72462132e-01
  2.74973983e-01  2.77886568e-01  2.80049456e-01  2.82412778e-01
  2.83249756e-01  2.89576944e-01  2.90832740e-01  2.93495413e-01
  2.94309812e-01  2.96574755e-01  3.00160014e-01  3.02395378e-01
  3.07932971e-01  3.09841498e-01  3.11621972e-01  3.12240544e-01
  3.15255388e-01  3.18884309e-01  3.20681192e-01  3.27361912e-01
  3.31260633e-01  3.33284021e-01  3.35619377e-01  3.37655281e-01
  3.40274215e-01  3.42700401e-01  3.44740330e-01  3.45601691e-01
  3.46374222e-01  3.51985508e-01  3.53928147e-01  3.57686998e-01
  3.59407236e-01  3.62169392e-01  3.64303478e-01  3.66451169e-01
  3.69746828e-01  3.71330918e-01  3.78271430e-01  3.81412602e-01
  3.83884781e-01  3.85499789e-01  3.87782852e-01  3.90416599e-01
  3.92999675e-01  3.95680739e-01  3.96480814e-01  4.02232067e-01
  4.02907511e-01  4.05581181e-01  4.08730499e-01  4.12783538e-01
  4.18834291e-01  4.19217226e-01  4.21748412e-01  4.24708413e-01
  4.27439757e-01  4.30412313e-01  4.31288358e-01  4.35481767e-01
  4.37482717e-01  4.39054667e-01  4.40734448e-01  4.45161631e-01
  4.47763119e-01  4.50145610e-01  4.52102628e-01  4.52996389e-01
  4.55690843e-01  4.59681386e-01  4.61236996e-01  4.63523229e-01
  4.65806968e-01  4.69203019e-01  4.73447816e-01  4.76196951e-01
  4.76406361e-01  4.78841629e-01  4.81642395e-01  4.83224675e-01
  4.84425746e-01  4.90752722e-01  4.93709582e-01  4.94519746e-01
  4.97379060e-01  4.98380057e-01  5.00159380e-01  5.01834131e-01
  5.04232922e-01  5.05261889e-01  5.10174386e-01  5.11902948e-01
  5.14687433e-01  5.17935843e-01  5.19511004e-01  5.21297992e-01
  5.21549301e-01  5.25844594e-01  5.29798872e-01  5.31772224e-01
  5.33362151e-01  5.34050889e-01  5.35575191e-01  5.40144359e-01
  5.41755537e-01  5.44014874e-01  5.48180321e-01  5.49209436e-01
  5.54277666e-01  5.55719560e-01  5.57224041e-01  5.59767726e-01
  5.61509896e-01  5.64512896e-01  5.65413581e-01  5.68027322e-01
  5.70692353e-01  5.71726628e-01  5.74554260e-01  5.76799007e-01
  5.78547013e-01  5.80439446e-01  5.83208134e-01  5.86965239e-01
  5.87895219e-01  5.90442355e-01  5.94367407e-01  5.96485446e-01
  5.98610748e-01  6.03006331e-01  6.04120828e-01  6.08305027e-01
  6.10270917e-01  6.13260706e-01  6.17818956e-01  6.22444241e-01
  6.23228339e-01  6.25604571e-01  6.26814624e-01  6.30880905e-01
  6.32344508e-01  6.41430767e-01  6.42827294e-01  6.43995355e-01
  6.47294866e-01  6.49294848e-01  6.53016183e-01  6.55128588e-01
  6.57905700e-01  6.59573036e-01  6.63833669e-01  6.67878183e-01
  6.70890973e-01  6.74279532e-01  6.75662188e-01  6.79958504e-01
  6.84360405e-01  6.89258994e-01  6.89304771e-01  6.91323760e-01
  6.95965238e-01  6.99846072e-01  7.02636217e-01  7.05001009e-01
  7.07525075e-01  7.10123727e-01  7.12402738e-01  7.15344418e-01
  7.16270043e-01  7.18054680e-01  7.22137567e-01  7.23666784e-01
  7.26398843e-01  7.29715036e-01  7.33142065e-01  7.37797514e-01
  7.39541843e-01  7.40531273e-01  7.44776281e-01  7.47080553e-01
  7.48662904e-01  7.53756899e-01  7.54699400e-01  7.58631590e-01
  7.62904992e-01  7.65127492e-01  7.65787198e-01  7.68246295e-01
  7.72567852e-01  7.74032025e-01  7.80443641e-01  7.82803488e-01
  7.84702461e-01  7.89264318e-01  7.92221808e-01  7.93783310e-01
  7.96492447e-01  8.01978700e-01  8.03005008e-01  8.04034220e-01
  8.10821991e-01  8.13895747e-01  8.18341602e-01  8.21412113e-01
  8.24366194e-01  8.28258891e-01  8.30175134e-01  8.34892903e-01
  8.40658585e-01  8.42033481e-01  8.44291822e-01  8.45116699e-01
  8.49984831e-01  8.56510627e-01  8.59688658e-01  8.63886907e-01
  8.66097363e-01  8.67822289e-01  8.73061550e-01  8.76578955e-01
  8.80821820e-01  8.86386218e-01  8.89084720e-01  8.93226528e-01
  8.97956797e-01  8.98783275e-01  9.03171605e-01  9.06180004e-01
  9.10529370e-01  9.16204969e-01  9.19831321e-01  9.23182148e-01
  9.24814430e-01  9.28259817e-01  9.29603209e-01  9.36033383e-01
  9.39031291e-01  9.46198256e-01  9.49718403e-01  9.52159313e-01
  9.54424356e-01  9.63065958e-01  9.65586533e-01  9.67254229e-01
  9.73138837e-01  9.76080769e-01  9.81539071e-01  9.86113735e-01
  9.89725506e-01  9.92461558e-01  9.94273032e-01  9.96474434e-01
  1.00206806e+00  1.01285415e+00  1.01405036e+00  1.01741431e+00
  1.01980629e+00  1.02382462e+00  1.02793555e+00  1.03037519e+00
  1.03102580e+00  1.03556474e+00  1.03825602e+00  1.04343325e+00
  1.04590783e+00  1.05143966e+00  1.05283604e+00  1.05358731e+00
  1.05991122e+00  1.06547869e+00  1.06646511e+00  1.06831024e+00
  1.07288064e+00  1.07392526e+00  1.08205946e+00  1.08428216e+00
  1.08794631e+00  1.09059409e+00  1.09458229e+00  1.09669576e+00
  1.10426371e+00  1.11056532e+00  1.11700621e+00  1.12168647e+00
  1.12694017e+00  1.12860655e+00  1.13100083e+00  1.13350156e+00
  1.13711926e+00  1.14097945e+00  1.14748859e+00  1.15346842e+00
  1.15555942e+00  1.16048620e+00  1.16261968e+00  1.16623326e+00
  1.17177615e+00  1.17475130e+00  1.17680748e+00  1.17861988e+00
  1.18501253e+00  1.18798283e+00  1.19357625e+00  1.20028264e+00
  1.20405720e+00  1.20822723e+00  1.21483169e+00  1.21798559e+00
  1.22155171e+00  1.22261382e+00  1.22543024e+00  1.23101541e+00
  1.23827820e+00  1.24287218e+00  1.24788734e+00  1.25025185e+00
  1.25309774e+00  1.26299000e+00  1.26416173e+00  1.26935125e+00
  1.27604615e+00  1.27899928e+00  1.28453139e+00  1.28811187e+00
  1.29169229e+00  1.29313021e+00  1.30030916e+00  1.30652960e+00
  1.31104962e+00  1.31573440e+00  1.31695034e+00  1.32116629e+00
  1.32486897e+00  1.33019701e+00  1.33751999e+00  1.33951532e+00
  1.34212245e+00  1.34763685e+00  1.35296000e+00  1.35545398e+00
  1.36717344e+00  1.37144427e+00  1.37387265e+00  1.37556226e+00
  1.37800882e+00  1.38224196e+00  1.38891280e+00  1.39187103e+00
  1.40164051e+00  1.40425450e+00  1.41187373e+00  1.41474996e+00
  1.41637200e+00  1.42006280e+00  1.42224470e+00  1.42690744e+00
  1.43436644e+00  1.44069981e+00  1.44439141e+00  1.44994941e+00
  1.45381847e+00  1.45783558e+00  1.46377136e+00  1.46735976e+00
  1.46963142e+00  1.47584217e+00  1.47997218e+00  1.48888650e+00
  1.49269853e+00  1.49546245e+00  1.50057829e+00  1.50916299e+00
  1.51284530e+00  1.51808527e+00  1.51899361e+00  1.52697149e+00
  1.53371570e+00  1.53904052e+00  1.54059277e+00  1.54196973e+00
  1.54662827e+00  1.55070181e+00  1.55368892e+00  1.55673135e+00
  1.56238897e+00  1.56428363e+00  1.57003953e+00  1.57278949e+00
  1.58275013e+00  1.58863862e+00  1.59273084e+00  1.59410539e+00
  1.59929102e+00  1.60530443e+00  1.60837234e+00  1.61319138e+00
  1.61775414e+00  1.62165176e+00  1.62750578e+00  1.63404490e+00
  1.63599824e+00  1.64260968e+00  1.64436858e+00  1.64492744e+00
  1.64734945e+00  1.65053778e+00  1.65470793e+00  1.65623146e+00
  1.65872731e+00  1.66317029e+00  1.66541869e+00  1.66732189e+00
  1.67219411e+00  1.67471444e+00  1.67534483e+00  1.67728875e+00
  1.68072003e+00  1.68413255e+00  1.68590372e+00  1.68933350e+00
[...]
  3.10753981e+00  3.10911462e+00  3.11052074e+00  3.11243735e+00
  3.11625954e+00  3.12105180e+00  3.12288136e+00  3.12596028e+00
  3.12915607e+00  3.13108515e+00  3.13579821e+00  3.14185099e+00
  3.14294806e+00  3.14798132e+00  3.15181104e+00  3.15652914e+00
  3.16075422e+00  3.16221145e+00  3.16531515e+00  3.16722690e+00
  3.17435949e+00  3.17619553e+00  3.17697495e+00  3.17837871e+00
  3.18372369e+00  3.18800764e+00  3.19320564e+00  3.19640560e+00
  3.19819960e+00  3.20253360e+00  3.20406831e+00  3.21283240e+00
  3.21473937e+00  3.21682760e+00  3.22403550e+00  3.22700883e+00
  3.22989075e+00  3.23344871e+00  3.23452568e+00  3.23696067e+00
  3.24166094e+00  3.24433646e+00  3.24689039e+00  3.25060441e+00
  3.25233578e+00  3.25644916e+00  3.25841020e+00  3.26125083e+00
  3.26280990e+00  3.26369968e+00  3.27086059e+00  3.27126925e+00
  3.27585687e+00  3.28061952e+00  3.28335717e+00  3.28591922e+00
  3.29094871e+00  3.29346563e+00  3.29475576e+00  3.30005871e+00
  3.30386295e+00  3.30494327e+00  3.31076180e+00  3.31230120e+00
  3.31404562e+00  3.31811121e+00  3.32003941e+00  3.32332287e+00
  3.32561653e+00  3.32859313e+00  3.33600691e+00  3.33729816e+00
  3.34133221e+00  3.34605870e+00  3.34838933e+00  3.35068254e+00
  3.35506282e+00  3.35735978e+00  3.36098993e+00  3.36282801e+00
  3.36826110e+00  3.37265004e+00  3.37661179e+00  3.38093212e+00
  3.38224091e+00  3.38731230e+00  3.38834961e+00  3.39056514e+00
  3.39270627e+00  3.39563102e+00  3.39974938e+00  3.40203866e+00
  3.40410745e+00  3.40597298e+00  3.40750481e+00  3.41006558e+00
  3.41136275e+00  3.41309208e+00  3.41463563e+00  3.41691007e+00
  3.41928882e+00  3.42034343e+00  3.42555877e+00  3.42644403e+00
  3.42883751e+00  3.43242990e+00  3.43801753e+00  3.44214383e+00
  3.44764489e+00  3.44857643e+00  3.44984137e+00  3.45247509e+00
  3.45668938e+00  3.45869810e+00  3.46260441e+00  3.46503933e+00
  3.47052499e+00  3.47270335e+00  3.47635351e+00  3.47962748e+00
  3.48121023e+00  3.48475584e+00  3.49102412e+00  3.49522141e+00
  3.50066231e+00  3.50143175e+00  3.50572326e+00  3.51048103e+00
  3.51197228e+00  3.51307828e+00  3.51940294e+00  3.52111900e+00
  3.52370354e+00  3.53016926e+00  3.53371799e+00  3.53741609e+00
  3.54498573e+00  3.54811806e+00  3.55235751e+00  3.55771903e+00
  3.56132545e+00  3.56255543e+00  3.57177853e+00  3.57685120e+00
  3.57797690e+00  3.58226674e+00  3.58558864e+00  3.59445260e+00
  3.59810622e+00  3.60094536e+00  3.60551787e+00  3.60767815e+00
  3.61233682e+00  3.62242731e+00  3.62681406e+00  3.63143194e+00
  3.63617003e+00  3.64162171e+00  3.64771268e+00  3.65006152e+00
  3.65469270e+00  3.65620019e+00  3.66015065e+00  3.66240366e+00
  3.66595111e+00  3.66879696e+00  3.67187634e+00  3.67713899e+00
  3.68185299e+00  3.68768667e+00  3.69230366e+00  3.69964461e+00
  3.70072916e+00  3.70212271e+00  3.71010086e+00  3.71838604e+00
  3.72071516e+00  3.72721107e+00  3.73874906e+00  3.74001852e+00
  3.74442414e+00  3.74529629e+00  3.75387655e+00  3.75398599e+00
  3.76274403e+00  3.76698560e+00  3.77203376e+00  3.77600011e+00
  3.78119165e+00  3.78462124e+00  3.78635263e+00  3.79283116e+00
  3.79869990e+00  3.80286800e+00  3.80668323e+00  3.80909116e+00
  3.81440508e+00  3.82240569e+00  3.82582974e+00  3.82963919e+00
  3.83585773e+00  3.83833614e+00  3.84625755e+00  3.84813376e+00
  3.85466345e+00  3.85585079e+00  3.85948553e+00  3.86947737e+00
  3.87167425e+00  3.87790679e+00  3.88211454e+00  3.89010584e+00
  3.89771508e+00  3.90068922e+00  3.90619549e+00  3.91492382e+00
  3.92117295e+00  3.92312429e+00  3.92633760e+00  3.93869527e+00
  3.94355024e+00  3.94485482e+00  3.95229932e+00  3.95613571e+00
  3.96292777e+00  3.97778404e+00  3.98083226e+00  3.99559971e+00
  3.99932306e+00  4.00242217e+00  4.01105114e+00  4.02620979e+00
  4.02689774e+00  4.03295226e+00  4.03434671e+00  4.03727850e+00
  4.03970365e+00  4.04529005e+00  4.04944754e+00  4.05399971e+00
  4.06625240e+00  4.07182027e+00  4.07650349e+00  4.08162109e+00
  4.08262703e+00  4.08782676e+00  4.09400074e+00  4.10605289e+00
  4.11284148e+00  4.11679449e+00  4.12221548e+00  4.13024362e+00
  4.13589365e+00  4.13744553e+00  4.14290984e+00  4.16125101e+00
  4.16367088e+00  4.17729928e+00  4.17855742e+00  4.18523544e+00
  4.19171147e+00  4.19645034e+00  4.21088890e+00  4.21530306e+00
  4.21912259e+00  4.22031821e+00  4.22687699e+00  4.23465817e+00
  4.23952185e+00  4.24257162e+00  4.24601416e+00  4.25224422e+00
  4.26305148e+00  4.26848782e+00  4.26935579e+00  4.27420514e+00
  4.28464252e+00  4.28848784e+00  4.29338899e+00  4.30683660e+00
  4.31055866e+00  4.31278321e+00  4.31916724e+00  4.32229649e+00
  4.32597755e+00  4.33303627e+00  4.33800013e+00  4.34710434e+00
  4.35145291e+00  4.35679727e+00  4.35785501e+00  4.35853741e+00
  4.36553458e+00  4.37776282e+00  4.38636412e+00  4.39993146e+00
  4.40606382e+00  4.41707706e+00  4.42090746e+00  4.42246263e+00
  4.43160257e+00  4.43647193e+00  4.44588673e+00  4.45593846e+00
  4.46124640e+00  4.47162907e+00  4.47525153e+00  4.48550115e+00
  4.49088800e+00  4.49186004e+00  4.49609509e+00  4.50334688e+00
  4.51088382e+00  4.51841533e+00  4.52387574e+00  4.53092288e+00
  4.53669469e+00  4.54311297e+00  4.54837816e+00  4.55655760e+00
  4.57355533e+00  4.57777239e+00  4.59036482e+00  4.60759500e+00
  4.61145085e+00  4.62370843e+00  4.64039317e+00  4.64322072e+00
  4.65555976e+00  4.65853768e+00  4.66130435e+00  4.66681799e+00
  4.67080183e+00  4.68069450e+00  4.69256627e+00  4.70260197e+00
  4.70833367e+00  4.70925225e+00  4.71722083e+00  4.72306379e+00
  4.73332794e+00  4.73612618e+00  4.74599309e+00  4.74628592e+00
  4.75603954e+00  4.76866315e+00  4.78199801e+00  4.78251434e+00
  4.80652749e+00  4.81309772e+00  4.82390187e+00  4.83175715e+00
  4.84103072e+00  4.84703260e+00  4.85603535e+00  4.86095068e+00
  4.86463001e+00  4.89071631e+00  4.89909555e+00  4.90953142e+00
  4.91186309e+00  4.92403850e+00  4.93598726e+00  4.93929607e+00
  4.94290814e+00  4.95708821e+00  4.96231801e+00  4.96977860e+00
  4.97629200e+00  4.98189940e+00  4.98862544e+00  4.99174448e+00
  5.00104447e+00  5.01003497e+00  5.02427712e+00  5.03469207e+00
  5.03672419e+00  5.05003952e+00  5.05845813e+00  5.06433666e+00
  5.06681061e+00  5.07842084e+00  5.08889267e+00  5.09679018e+00
  5.10574342e+00  5.12231718e+00  5.15429052e+00  5.17166575e+00
  5.17640788e+00  5.17871708e+00  5.18751875e+00  5.18898701e+00
  5.21341380e+00  5.21600145e+00  5.22474487e+00  5.23399777e+00
  5.24497749e+00  5.24934960e+00  5.25250650e+00  5.25509742e+00
  5.25705558e+00  5.26494081e+00  5.28355424e+00  5.28832174e+00
  5.29571049e+00  5.31192235e+00  5.32525143e+00  5.33667843e+00
  5.35297847e+00  5.37160553e+00  5.37772194e+00  5.39587757e+00
  5.41208993e+00  5.42478775e+00  5.44833317e+00  5.45326599e+00
  5.46141927e+00  5.47144376e+00  5.47314393e+00  5.48146016e+00
  5.49100653e+00  5.49941027e+00  5.50206449e+00  5.50945839e+00
  5.52669926e+00  5.54596921e+00  5.57293908e+00  5.58575857e+00
  5.59366787e+00  5.59813385e+00  5.60255974e+00  5.60577244e+00
  5.62930731e+00  5.65163673e+00  5.65685117e+00  5.66723384e+00
  5.67259080e+00  5.67815152e+00  5.69487272e+00  5.69902154e+00
  5.73712805e+00  5.75944716e+00  5.76491884e+00  5.78766284e+00
  5.81274992e+00  5.81829451e+00  5.85112699e+00  5.85662490e+00
  5.87192481e+00  5.87795935e+00  5.92485508e+00  5.94456523e+00
  5.94715736e+00  5.97406623e+00  5.98000920e+00  5.99435754e+00
  6.00369651e+00  6.03454940e+00  6.05708084e+00  6.08066117e+00
  6.10169365e+00  6.13765604e+00  6.14812386e+00  6.18083048e+00
  6.22511686e+00  6.24550922e+00  6.24731838e+00  6.28335296e+00
  6.31196474e+00  6.36382227e+00  6.41310637e+00  6.43152961e+00
  6.45325847e+00  6.46750304e+00  6.47392370e+00  6.49727429e+00
  6.58785560e+00  6.58900285e+00  6.63808884e+00  6.64082203e+00
  6.75132135e+00  6.76040254e+00  6.82298360e+00  6.82600424e+00
  6.85152799e+00  6.90145947e+00  6.92179601e+00  6.98471311e+00
  7.01762554e+00  7.04853309e+00  7.17615634e+00  7.20677737e+00
  7.22923128e+00  7.24878832e+00  7.35143062e+00  7.44312366e+00
  2.22895642e+01  2.23432264e+01  2.24376596e+01  2.24461268e+01
  2.24504155e+01  2.24649282e+01  2.25421828e+01  2.25653042e+01
  2.26452748e+01  2.26645288e+01  2.27593310e+01  2.27641898e+01
  2.28182074e+01  2.28334353e+01  2.28509649e+01  2.28651348e+01
  2.28955754e+01  2.29370029e+01  2.29606108e+01  2.30309458e+01
  2.31485813e+01  2.31755729e+01  2.31894319e+01  2.32380393e+01
  2.32943173e+01  2.33030335e+01  2.33160301e+01  2.33878078e+01
  2.34393164e+01  2.34732360e+01  2.36169781e+01  2.36771075e+01
  2.36896011e+01  2.37704831e+01  3.27054793e+01  3.27377202e+01
  3.27590793e+01  3.27905803e+01  4.38560287e+01  4.39123089e+01
  4.39298589e+01  4.40350719e+01]
nelec by numeric integration = 298.00037086282276
    CPU time for vxc    277.49 sec, wall time     18.19 sec
    CPU time for df vj and vk   1954.73 sec, wall time    136.92 sec
    CPU time for df vj and vk   1494.27 sec, wall time    139.63 sec
E1 = -11984.069176312052  Ecoul = 5638.7934543821675  Exc = -258.8547097712759
Extra cycle  E= -1836.18335438345  delta_E= -6.37e-12  |g|= 9e-06  |ddm|= 1.61e-05
    CPU time for scf_cycle  17926.59 sec, wall time   1537.01 sec
    CPU time for SCF  17926.59 sec, wall time   1537.01 sec
converged SCF energy = -1836.18335438345
SCF Done after  1537.0146 seconds
after SCF memory used: 34411.8046875 MB
Converting <class 'pyscf.df.df_jk.density_fit.<locals>.DFHF'> to RHF
Converting <class 'pyscf.df.df_jk.density_fit.<locals>.DFHF'> to RHF
a_x = 0.56
beta = 8.0
alpha = 4.58
hdiag (202193,)
n_occ =  149
n_vir =  1357
max_vir =  371
Q-Gamma tensors building time = 26.7873
after Q matrix memory used: 36021.375 MB
-------------------------------------------------------------------
|---------------   In-house Developed Davidson Starts   -----------|
Residual conv = 1e-05
Number of excited states = 20
Initial guess:   sTDA
Preconditioner:  sTDA
A matrix size =  202193 * 202193
sTDA nstate = 28
sTDA A diagonalization: threshold = 0.001 ; in 15 steps  56.5452 seconds
sTDA excitation energies:
[2.06940361 2.09456371 3.49741243 3.55665358 4.06205    4.10899607
 4.16812113 4.19514539 4.31220838 4.39791875 4.42486871 4.54264356
 4.78008698 4.83309234 4.8409516  4.87082018 4.96992843 5.10893508
 5.19442252 5.24081786 5.44937418 5.49690852 5.85476183 5.88873498
 5.96500545 5.97588185 6.04341442 6.16834125]
Intial guess time: 56.9753 seconds
    CPU time for df vj and vk  55651.52 sec, wall time   3747.41 sec
    CPU time for df vj and vk  40930.00 sec, wall time   2660.07 sec
Iteration  0
subspace size:  28
maximum residual norm 0.10498183791155592
sTDA Preconditioning Done after  15 steps;  27.0232 seconds
subgencost 2.4494 9.06 %
mvcost 10.2496 37.93 %
GScost 11.2374 41.58 %
subcost 0.0559 0.21 %
m,new_m 28 48
    CPU time for df vj and vk  38372.06 sec, wall time   2616.81 sec
    CPU time for df vj and vk  29032.44 sec, wall time   1889.98 sec
new generated guesses: 20
Iteration  1
subspace size:  48
maximum residual norm 0.020787082913292104
sTDA Preconditioning Done after  13 steps;  22.4177 seconds
subgencost 1.7173 7.66 %
mvcost 10.1743 45.39 %
GScost 7.9376 35.41 %
subcost 0.0457 0.2 %
m,new_m 48 68
    CPU time for df vj and vk  38420.01 sec, wall time   2620.66 sec
    CPU time for df vj and vk  29028.73 sec, wall time   1891.42 sec
new generated guesses: 20
Iteration  2
subspace size:  68
maximum residual norm 0.009159046821559016
sTDA Preconditioning Done after  12 steps;  27.5954 seconds
subgencost 1.8765 6.8 %
mvcost 10.1648 36.83 %
GScost 12.7169 46.08 %
subcost 0.0428 0.16 %
m,new_m 68 88
    CPU time for df vj and vk  38431.29 sec, wall time   2624.49 sec
    CPU time for df vj and vk  29043.77 sec, wall time   1893.13 sec
new generated guesses: 20
Iteration  3
subspace size:  88
maximum residual norm 0.00829863787512886
sTDA Preconditioning Done after  17 steps;  27.9841 seconds
subgencost 2.8346 10.13 %
mvcost 10.4104 37.2 %
GScost 11.4845 41.04 %
subcost 0.0641 0.23 %
m,new_m 88 108
    CPU time for df vj and vk  39048.65 sec, wall time   2630.01 sec
    CPU time for df vj and vk  29017.10 sec, wall time   1891.43 sec
new generated guesses: 20
Iteration  4
subspace size:  108
maximum residual norm 0.00984203447272961
sTDA Preconditioning Done after  15 steps;  29.6081 seconds
subgencost 2.4754 8.36 %
mvcost 10.4908 35.43 %
GScost 13.4445 45.41 %
subcost 0.0556 0.19 %
m,new_m 108 128
    CPU time for df vj and vk  38536.82 sec, wall time   2594.01 sec
    CPU time for df vj and vk  29033.41 sec, wall time   1891.48 sec
new generated guesses: 20
Iteration  5
subspace size:  128
maximum residual norm 0.0027456396570263507
sTDA Preconditioning Done after  14 steps;  26.3421 seconds
subgencost 2.1982 8.34 %
mvcost 10.2602 38.95 %
GScost 10.8777 41.29 %
subcost 0.0505 0.19 %
m,new_m 128 148
    CPU time for df vj and vk  38568.93 sec, wall time   2640.42 sec
    CPU time for df vj and vk  29264.47 sec, wall time   1902.72 sec
new generated guesses: 20
Iteration  6
subspace size:  148
maximum residual norm 0.0005792750862836412
sTDA Preconditioning Done after  16 steps;  2.0295 seconds
subgencost 0.2536 12.5 %
mvcost 1.299 64.01 %
GScost 0.2466 12.15 %
subcost 0.0057 0.28 %
m,new_m 148 150
    CPU time for df vj and vk   3879.93 sec, wall time    266.51 sec
    CPU time for df vj and vk   2959.88 sec, wall time    222.12 sec
new generated guesses: 2
Iteration  7
subspace size:  150
maximum residual norm 0.0001079803075973428
sTDA Preconditioning Done after  21 steps;  1.5055 seconds
subgencost 0.2228 14.8 %
mvcost 0.9726 64.6 %
GScost 0.1616 10.73 %
subcost 0.0055 0.37 %
m,new_m 150 151
    CPU time for df vj and vk   1929.14 sec, wall time    135.28 sec
    CPU time for df vj and vk   1495.35 sec, wall time    164.63 sec
new generated guesses: 1
Iteration  8
subspace size:  151
maximum residual norm 2.279787596858085e-05
sTDA Preconditioning Done after  20 steps;  1.4127 seconds
subgencost 0.1951 13.81 %
mvcost 0.9487 67.16 %
GScost 0.1413 10.01 %
subcost 0.0052 0.37 %
m,new_m 151 152
    CPU time for df vj and vk   1930.11 sec, wall time    135.80 sec
    CPU time for df vj and vk   1496.54 sec, wall time    166.33 sec
new generated guesses: 1
Iteration  9
subspace size:  152
maximum residual norm 7.32044522269972e-06
Davidson procedure aborted
Davidson done after  38058.3676 seconds
Total steps = 10
Final subspace shape =  (152, 152)
Preconditioning time: 166.6083 0.44 %
In-house Davidson time: 38058.5407 seconds
Excited State energies (eV) =
[2.20232036 2.33942232 3.67523721 3.69187151 4.06576789 4.1844129
 4.23636621 4.33613489 4.42894002 4.4346259  4.55925936 4.69436537
 4.82108458 4.87715923 4.95984865 4.99977131 5.05615386 5.1400587
 5.33637359 5.50420318]
|---------------   In-house Developed Davidson Done   -----------|
-------------------------------------------------------------------
|---------------   In-house Developed Davidson Starts   -----------|
Residual conv = 1e-05
Number of excited states = 20
Initial guess:   Adiag
Preconditioner:  Adiag
A matrix size =  202193 * 202193
Intial guess time: 0.0094 seconds
    CPU time for df vj and vk  54368.39 sec, wall time   3692.15 sec
    CPU time for df vj and vk  41163.63 sec, wall time   2649.15 sec
Iteration  0
subspace size:  28
maximum residual norm 0.12980018360665876
m,new_m 28 48
    CPU time for df vj and vk  38926.36 sec, wall time   2666.33 sec
    CPU time for df vj and vk  29398.22 sec, wall time   1921.41 sec
new generated guesses: 20
Iteration  1
subspace size:  48
maximum residual norm 0.043248027801050394
m,new_m 48 68
    CPU time for df vj and vk  38923.43 sec, wall time   2667.29 sec
    CPU time for df vj and vk  29376.76 sec, wall time   1921.86 sec
new generated guesses: 20
Iteration  2
subspace size:  68
maximum residual norm 0.014743207015997562
m,new_m 68 88
    CPU time for df vj and vk  38835.37 sec, wall time   2656.68 sec
    CPU time for df vj and vk  29376.23 sec, wall time   1917.48 sec
new generated guesses: 20
Iteration  3
subspace size:  88
maximum residual norm 0.010059102550559796
m,new_m 88 108
    CPU time for df vj and vk  38976.28 sec, wall time   2665.23 sec
    CPU time for df vj and vk  29385.93 sec, wall time   1914.73 sec
new generated guesses: 20
Iteration  4
subspace size:  108
maximum residual norm 0.005508879317153493
m,new_m 108 128
    CPU time for df vj and vk  38911.70 sec, wall time   2655.65 sec
    CPU time for df vj and vk  29375.61 sec, wall time   1915.85 sec
new generated guesses: 20
Iteration  5
subspace size:  128
maximum residual norm 0.00763018022996516
m,new_m 128 148
    CPU time for df vj and vk  38875.42 sec, wall time   2634.86 sec
    CPU time for df vj and vk  30324.86 sec, wall time   1982.91 sec
new generated guesses: 20
Iteration  6
subspace size:  148
maximum residual norm 0.009010909319837068
m,new_m 148 168
    CPU time for df vj and vk  40181.76 sec, wall time   2700.39 sec
    CPU time for df vj and vk  29619.64 sec, wall time   1928.47 sec
new generated guesses: 20
Iteration  7
subspace size:  168
maximum residual norm 0.004333205423918195
m,new_m 168 186
    CPU time for df vj and vk  35123.73 sec, wall time   2399.43 sec
    CPU time for df vj and vk  26500.06 sec, wall time   1729.23 sec
new generated guesses: 18
Iteration  8
subspace size:  186
maximum residual norm 0.0018479785591654333
m,new_m 186 204
    CPU time for df vj and vk  34916.10 sec, wall time   2354.73 sec
    CPU time for df vj and vk  26260.16 sec, wall time   1719.06 sec
new generated guesses: 18
Iteration  9
subspace size:  204
maximum residual norm 0.0006992717342407223
m,new_m 204 213
    CPU time for df vj and vk  17444.51 sec, wall time   1192.53 sec
    CPU time for df vj and vk  13157.96 sec, wall time    890.65 sec
new generated guesses: 9
Iteration  10
subspace size:  213
maximum residual norm 0.00024731364341006506
m,new_m 213 216
    CPU time for df vj and vk   5770.78 sec, wall time    399.56 sec
    CPU time for df vj and vk   4365.49 sec, wall time    316.64 sec
new generated guesses: 3
Iteration  11
subspace size:  216
maximum residual norm 7.739320852810075e-05
m,new_m 216 217
    CPU time for df vj and vk   1910.07 sec, wall time    134.68 sec
    CPU time for df vj and vk   1459.23 sec, wall time    159.31 sec
new generated guesses: 1
Iteration  12
subspace size:  217
maximum residual norm 2.2699695104072548e-05
m,new_m 217 218
    CPU time for df vj and vk   1908.37 sec, wall time    134.25 sec
    CPU time for df vj and vk   1475.67 sec, wall time    159.16 sec
new generated guesses: 1
Iteration  13
subspace size:  218
maximum residual norm 9.165618761451793e-06
Davidson procedure aborted
Davidson done after  54907.7081 seconds
Total steps = 14
Final subspace shape =  (218, 218)
Preconditioning time: 1.2582 0.0 %
In-house Davidson time: 54907.9348 seconds
Excited State energies (eV) =
[2.20232036 2.33942232 3.67523721 3.69187151 4.06576788 4.1844129
 4.23636621 4.33613489 4.42894002 4.4346259  4.55925936 4.69436537
 4.82108458 4.87715923 4.95984865 4.99977131 5.05615386 5.1400587
 5.33637359 5.50420318]
|---------------   In-house Developed Davidson Done   -----------|
xyzfile = 76_Protoporphyrin.xyz
checkfile = True
method = RKS
functional = wb97x
basis_set = def2-tzvp
density_fit = True
grid_level = 3
nstates = 20
pytd = False
TDA = True
TDDFT = False
dynpol = False
dynpol_omega = []
stapol = False
sTDA = False
sTDDFT = False
Truncate_test = False
truncate_virtual = 40.0
TDA_options = [0, 1]
TDDFT_options = [0]
dynpol_options = [0]
stapol_options = [0]
TDA_tolerance = 1e-05
TDDFT_tolerance = 1e-05
dynpol_tolerance = 1e-05
stapol_tolerance = 1e-05
max = 35
TDA_initialTOL = 0.001
TDDFT_initialTOL = 0.001
dynpol_initprecTOL = 0.01
stapol_initprecTOL = 0.01
TDA_precondTOL = 0.01
TDDFT_precondTOL = 0.01
TDA_extrainitial = 8
TDDFT_extrainitial = 8
TDDFT_extrainitial_3n = False
eigensolver_tol = 1e-05
memory = 60000
verbose = 5
beta = []
alpha = []
