curpath /scratch/pbsjobs/job.16219597.hpc
lib.num_threads() =  20
at beginning memory used: 0.05 GB
mol.max_memory 70000


System: uname_result(system='Linux', node='compt260', release='3.10.0-1127.el7.x86_64', version='#1 SMP Tue Feb 18 16:39:12 EST 2020', machine='x86_64', processor='x86_64')  Threads 20
Python 3.5.1 (default, Apr 20 2017, 11:25:55) 
[GCC Intel(R) C++ gcc 4.8.5 mode]
numpy 1.11.2  scipy 0.19.0
Date: Mon Aug 30 22:37:10 2021
PySCF version 1.7.4
PySCF path  /home/smp201/apps/pyscf/pyscf
GIT HEAD      ref: refs/heads/master
GIT master branch  b8813f865829009a819596dee869181c5158ee5c

[CONFIG] conf_file None
[INPUT] verbose = 5
[INPUT] max_memory = 70000 
[INPUT] num. atoms = 46
[INPUT] num. electrons = 262
[INPUT] charge = 0
[INPUT] spin (= nelec alpha-beta = 2S) = 0
[INPUT] symmetry False subgroup None
[INPUT] Mole.unit = angstrom
[INPUT]  1 C     -0.075469006356   2.698376776999  -1.393666497568 AA   -0.142615752907   5.099193089414  -2.633647989385 Bohr
[INPUT]  2 C     -0.243298869070   1.339130002559  -1.773001231282 AA   -0.459768228958   2.530588950025  -3.350486745640 Bohr
[INPUT]  3 C     -0.581397769078   1.067556398519  -3.100771230899 AA   -1.098682552990   2.017389215728  -5.859608401330 Bohr
[INPUT]  4 C     -0.722513045051   2.134027920314  -4.008683736391 AA   -1.365351776571   4.032728311569  -7.575314381777 Bohr
[INPUT]  5 C     -0.546676365965   3.476619725330  -3.609111638462 AA   -1.033068610445   6.569859120135  -6.820232549674 Bohr
[INPUT]  6 C     -0.219696838125   3.779396497934  -2.285942218596 AA   -0.415166854489   7.142024297236  -4.319804729728 Bohr
[INPUT]  7 H     -0.727393876974   0.036476447009  -3.437743559736 AA   -1.374575212166   0.068930494844  -6.496393814389 Bohr
[INPUT]  8 H     -0.972393071025   1.919951938348  -5.053707957650 AA   -1.837556589661   3.628183335806  -9.550123953494 Bohr
[INPUT]  9 H     -0.667670889471   4.280170027435  -4.342195719787 AA   -1.261715122445   8.088349118424  -8.205560689655 Bohr
[INPUT] 10 H     -0.079154559920   4.806941716354  -1.938906169259 AA   -0.149580439760   9.083803340655  -3.664001641130 Bohr
[INPUT] 11 C     -1.501385475034  -0.193978218011  -0.083072884688 AA   -2.837207355214  -0.366565706171  -0.156985000438 Bohr
[INPUT] 12 C     -2.454832448400   0.324527631847   0.802388094915 AA   -4.638961009171   0.613268344044   1.516293745001 Bohr
[INPUT] 13 C     -1.916516186861  -1.313516530775  -0.821252237094 AA   -3.621690706462  -2.482186503253  -1.551941807293 Bohr
[INPUT] 14 C     -3.719221941997  -0.254042184561   0.992369635089 AA   -7.028310866847  -0.480070152907   1.875306824652 Bohr
[INPUT] 15 C     -3.163054747926  -1.926440837911  -0.665552129418 AA   -5.977307190585  -3.640445578830  -1.257711246221 Bohr
[INPUT] 16 C     -4.075220156154  -1.387138542175   0.252808321537 AA   -7.701049992439  -2.621311941539   0.477738489716 Bohr
[INPUT] 17 C      1.239291118887  -0.527919093658  -0.406791892771 AA    2.341920803302  -0.997622502942  -0.768725267031 Bohr
[INPUT] 18 C      1.279206104242  -1.799029833736   0.186071912272 AA    2.417349193890  -3.399673675684   0.351624953668 Bohr
[INPUT] 19 C      2.442317917060  -0.113025947348  -1.000601717395 AA    4.615311972361  -0.213588085458  -1.890863205646 Bohr
[INPUT] 20 C      2.410526415881  -2.625456464178   0.165257350044 AA    4.555234742044  -4.961393669266   0.312291131655 Bohr
[INPUT] 21 C      3.598897234193  -0.901541318298  -1.046425674679 AA    6.800930123080  -1.703666181563  -1.977457934856 Bohr
[INPUT] 22 C      3.579211485031  -2.172915403737  -0.459084327226 AA    6.763729448606  -4.106215004911  -0.867543646538 Bohr
[INPUT] 23 F      2.528699032192   1.115767834894  -1.552341557859 AA    4.778548622295   2.108495626549  -2.933500396134 Bohr
[INPUT] 24 F      4.716085796355  -0.451288614488  -1.631346116257 AA    8.912110535061  -0.852811884517  -3.082797374099 Bohr
[INPUT] 25 F      4.670139111472  -2.944507330844  -0.486005078167 AA    8.825283884301  -5.564312427069  -0.918416492884 Bohr
[INPUT] 26 F      2.386323015299  -3.833318615508   0.742853115617 AA    4.509496943661  -7.243922331507   1.403788939295 Bohr
[INPUT] 27 F      0.203182360921  -2.291179484923   0.840958506349 AA    0.383959015483  -4.329701728726   1.589181259124 Bohr
[INPUT] 28 F     -3.496469584535  -3.005205961026  -1.385270643217 AA   -6.607369917643  -5.679016214249  -2.617782124081 Bohr
[INPUT] 29 F     -5.277207132854  -1.949574791279   0.416309506639 AA   -9.972476183696  -3.684162414872   0.786710950601 Bohr
[INPUT] 30 F     -4.588265816508   0.278247511902   1.861588861171 AA   -8.670565779905   0.525811592336   3.517893104154 Bohr
[INPUT] 31 F     -2.196195287835   1.438174708322   1.522747766407 AA   -4.150207610069   2.717756318005   2.877576235302 Bohr
[INPUT] 32 N      0.297967247280   1.727086300334   0.530807698346 AA    0.563076491450   3.263720101120   1.003081174684 Bohr
[INPUT] 33 N      0.272079425819   2.868107138384  -0.061745706326 AA    0.514155598927   5.419936987455  -0.116682474323 Bohr
[INPUT] 34 B     -0.051230384812   0.467455771212  -0.433377605076 AA   -0.096811396550   0.883363382938  -0.818964982113 Bohr
[INPUT] 35 F     -1.077423037270  -1.853547320000  -1.734390775345 AA   -2.036034460737  -3.502696793721  -3.277523558374 Bohr
[INPUT] 36 C      0.711355117210   1.669559263790   1.883646814586 AA    1.344266348834   3.155009757293   3.559576594976 Bohr
[INPUT] 37 C      1.292176720873   2.792519192826   2.506894891910 AA    2.441860106989   5.277096472033   4.737344768780 Bohr
[INPUT] 38 C      0.536736230535   0.465078217253   2.592344045846 AA    1.014284476843   0.878870457109   4.898820267296 Bohr
[INPUT] 39 C      1.694514226636   2.701633534719   3.840456233204 AA    3.202167802521   5.105347469559   7.257410474135 Bohr
[INPUT] 40 H      1.419405961195   3.711032488041   1.929980774298 AA    2.682288526234   7.012835041761   3.647135089099 Bohr
[INPUT] 41 C      0.943640971462   0.390374954235   3.927539978634 AA    1.783222995981   0.737701749394   7.421974902898 Bohr
[INPUT] 42 H      0.074416146111  -0.397762513751   2.109297259604 AA    0.140626135395  -0.751662213609   3.985994135947 Bohr
[INPUT] 43 C      1.523843128887   1.502954690130   4.554994286886 AA    2.879646170396   2.840172741975   8.607691701173 Bohr
[INPUT] 44 H      2.150363934408   3.569720418816   4.327141840932 AA    4.063598904174   6.745793932829   8.177112981508 Bohr
[INPUT] 45 H      0.804208640589  -0.543903122036   4.480050750810 AA    1.519734077722  -1.027827938944   8.466068943183 Bohr
[INPUT] 46 H      1.844942148683   1.437570020738   5.599449660054 AA    3.486435376678   2.716613624080  10.581426305792 Bohr
[INPUT] ---------------- BASIS SET ---------------- 
[INPUT] l, kappa, [nprim/nctr], expnt,             c_1 c_2 ...
[INPUT] C
[INPUT] 0    0    [6    /1   ]  13575.349682      0.00022245814352
                                2035.233368       0.0017232738252
                                463.22562359      0.0089255715314
                                131.20019598      0.035727984502
                                42.853015891      0.11076259931
                                15.584185766      0.24295627626
[INPUT] 0    0    [2    /1   ]  6.2067138508      0.41440263448
                                2.5764896527      0.23744968655
[INPUT] 0    0    [1    /1   ]  0.57696339419        1
[INPUT] 0    0    [1    /1   ]  0.22972831358        1
[INPUT] 0    0    [1    /1   ]  0.095164440028       1
[INPUT] 1    0    [4    /1   ]  34.697232244      0.0053333657805
                                7.9582622826      0.035864109092
                                2.3780826883      0.14215873329
                                0.81433208183     0.34270471845
[INPUT] 1    0    [1    /1   ]  0.28887547253        1
[INPUT] 1    0    [1    /1   ]  0.10056823671        1
[INPUT] 2    0    [1    /1   ]  1.097                1
[INPUT] 2    0    [1    /1   ]  0.318                1
[INPUT] 3    0    [1    /1   ]  0.761                1
[INPUT] H
[INPUT] 0    0    [3    /1   ]  34.061341         0.0060251978
                                5.1235746         0.045021094
                                1.1646626         0.20189726
[INPUT] 0    0    [1    /1   ]  0.32723041           1
[INPUT] 0    0    [1    /1   ]  0.10307241           1
[INPUT] 1    0    [1    /1   ]  0.8                  1
[INPUT] N
[INPUT] 0    0    [6    /1   ]  19730.800647      0.00021887984991
                                2957.8958745      0.0016960708803
                                673.22133595      0.0087954603538
                                190.68249494      0.035359382605
                                62.295441898      0.11095789217
                                22.654161182      0.24982972552
[INPUT] 0    0    [2    /1   ]  8.9791477428      0.40623896148
                                3.686300237       0.24338217176
[INPUT] 0    0    [1    /1   ]  0.84660076805        1
[INPUT] 0    0    [1    /1   ]  0.33647133771        1
[INPUT] 0    0    [1    /1   ]  0.13647653675        1
[INPUT] 1    0    [4    /1   ]  49.20038051       0.0055552416751
                                11.346790537      0.038052379723
                                3.4273972411      0.14953671029
                                1.1785525134      0.3494930523
[INPUT] 1    0    [1    /1   ]  0.41642204972        1
[INPUT] 1    0    [1    /1   ]  0.14260826011        1
[INPUT] 2    0    [1    /1   ]  1.654                1
[INPUT] 2    0    [1    /1   ]  0.469                1
[INPUT] 3    0    [1    /1   ]  1.093                1
[INPUT] F
[INPUT] 0    0    [6    /1   ]  35479.100441      0.00021545014888
                                5318.4728983      0.0016700686527
                                1210.4810975      0.0086733211476
                                342.8551814       0.035049933175
                                112.01943181      0.11165320133
                                40.714740248      0.25988506647
[INPUT] 0    0    [2    /1   ]  16.039678111      0.3942296688
                                6.503818674       0.24998238551
[INPUT] 0    0    [1    /1   ]  1.5440477509         1
[INPUT] 0    0    [1    /1   ]  0.61223452862        1
[INPUT] 0    0    [1    /1   ]  0.24027979698        1
[INPUT] 1    0    [4    /1   ]  80.233900483      0.0063685999134
                                18.594010743      0.04430314353
                                5.6867902653      0.16867248708
                                1.9511006294      0.36166346255
[INPUT] 1    0    [1    /1   ]  0.66970211298        1
[INPUT] 1    0    [1    /1   ]  0.2165130041         1
[INPUT] 2    0    [1    /1   ]  3.107                1
[INPUT] 2    0    [1    /1   ]  0.855                1
[INPUT] 3    0    [1    /1   ]  1.917                1
[INPUT] B
[INPUT] 0    0    [6    /1   ]  8564.8660687      0.00022837198155
                                1284.1516263      0.0017682576447
                                292.27871604      0.0091407080516
                                82.775469176      0.036342638989
                                27.017939269      0.11063458441
                                9.814961966       0.23367344321
[INPUT] 0    0    [2    /1   ]  3.9318559059      0.41818777978
                                1.6595599712      0.22325473798
[INPUT] 0    0    [1    /1   ]  0.35762965239        1
[INPUT] 0    0    [1    /1   ]  0.14246277496        1
[INPUT] 0    0    [1    /1   ]  0.060560594768       1
[INPUT] 1    0    [4    /1   ]  22.453875803      0.0050265575179
                                5.104505833       0.032801738965
                                1.4986081344      0.13151230768
                                0.50927831315     0.33197167769
[INPUT] 1    0    [1    /1   ]  0.18147077798        1
[INPUT] 1    0    [1    /1   ]  0.064621893904       1
[INPUT] 2    0    [1    /1   ]  0.661                1
[INPUT] 2    0    [1    /1   ]  0.199                1
[INPUT] 3    0    [1    /1   ]  0.49                 1

nuclear repulsion = 4280.84137352411
number of shells = 443
number of NR pGTOs = 1774
number of NR cGTOs = 1201
basis = def2-tzvp
ecp = {}
CPU time:         0.67
RKS
Density fitting turned on
Molecule built
Calculating SCF Energy...


******** <class 'pyscf.df.df_jk.density_fit.<locals>.DFHF'> ********
method = DFHF-RKS-RHF
initial guess = chkfile
damping factor = 0
level_shift factor = 0
DIIS = <class 'pyscf.scf.diis.CDIIS'>
diis_start_cycle = 1
diis_space = 8
SCF conv_tol = 1e-10
SCF conv_tol_grad = None
SCF max_cycles = 50
direct_scf = True
direct_scf_tol = 1e-13
chkfile to save SCF result = 46_Azobenzene_3a_pbe0.chk
max_memory 70000 MB (current use 58 MB)
XC functionals = pbe0
small_rho_cutoff = 1e-07
radial grids: 
    Treutler-Ahlrichs [JCP 102, 346 (1995); DOI:10.1063/1.469408] (M4) radial grids
    
becke partition: Becke, JCP 88, 2547 (1988); DOI:10.1063/1.454033
pruning grids: <function nwchem_prune at 0x7f094c8a8840>
grids dens level: 3
symmetrized grids: False
atomic radii adjust function: <function treutler_atomic_radii_adjust at 0x7f094c8a87b8>
Set gradient conv threshold to 1e-05
atom C rad-grids = 75, ang-grids = [ 50  50  50  50  50  50  50  50  50  50  50  50  50  50  50  50  50  50
  50  50  50  50  50  86  86  86  86  86  86  86  86  86  86 266 266 266
 266 266 266 266 302 302 302 302 302 302 302 302 302 302 302 302 302 302
 302 302 302 302 302 302 266 266 266 266 266 266 266 266 266 266 266 266
 266 266 266]
atom H rad-grids = 50, ang-grids = [ 50  50  50  50  50  50  50  50  50  50  50  50  50  50  86  86  86  86
 266 266 266 266 302 302 302 302 302 302 302 302 302 302 302 302 302 266
 266 266 266 266 266 266 266 266 266 266 266 266 266 266]
atom F rad-grids = 75, ang-grids = [ 50  50  50  50  50  50  50  50  50  50  50  50  50  50  50  50  50  50
  50  50  50  86  86  86  86  86  86  86  86  86 266 266 266 266 266 266
 302 302 302 302 302 302 302 302 302 302 302 302 302 302 302 302 302 302
 266 266 266 266 266 266 266 266 266 266 266 266 266 266 266 266 266 266
 266 266 266]
atom N rad-grids = 75, ang-grids = [ 50  50  50  50  50  50  50  50  50  50  50  50  50  50  50  50  50  50
  50  50  50  50  50  86  86  86  86  86  86  86  86  86 266 266 266 266
 266 266 266 302 302 302 302 302 302 302 302 302 302 302 302 302 302 302
 302 302 302 302 266 266 266 266 266 266 266 266 266 266 266 266 266 266
 266 266 266]
atom B rad-grids = 75, ang-grids = [ 50  50  50  50  50  50  50  50  50  50  50  50  50  50  50  50  50  50
  50  50  50  50  50  50  50  86  86  86  86  86  86  86  86  86  86 266
 266 266 266 266 266 266 302 302 302 302 302 302 302 302 302 302 302 302
 302 302 302 302 302 302 302 302 302 266 266 266 266 266 266 266 266 266
 266 266 266]
tot grids = 609882
Drop grids 109236
    CPU time for setting up grids    116.11 sec, wall time      6.66 sec
nelec by numeric integration = 261.999940873
    CPU time for vxc    194.36 sec, wall time     10.54 sec
******** <class 'pyscf.df.df.DF'> ********
auxbasis = None
max_memory = 70000
_cderi_to_save = /tmp/job.16219597.hpc/tmpp_ydxc7v
Default auxbasis def2-tzvp-jkfit is used for C def2-tzvp
Default auxbasis def2-tzvp-jkfit is used for H def2-tzvp
Default auxbasis def2-tzvp-jkfit is used for N def2-tzvp
Default auxbasis def2-tzvp-jkfit is used for F def2-tzvp
Default auxbasis def2-tzvp-jkfit is used for B def2-tzvp
num shells = 979, num cGTOs = 2961
size of aux basis 2961
int3c2e [1/2], AO [0:441], nrow = 717003
int3c2e [2/2], AO [441:443], nrow = 4798
    CPU time for cholesky_eri    320.90 sec, wall time    220.58 sec
    CPU time for df vj and vk   1070.90 sec, wall time    267.05 sec
E1 = -11347.4922213  Ecoul = 5269.30143355  Exc = -253.97622496
init E= -2051.32563914605
cond(S) = 1712291.20592
    CPU time for initialize scf   1390.52 sec, wall time    285.29 sec
  HOMO = -0.263834661798473  LUMO = -0.131609717555226
  mo_energy =
[ -2.48140915e+01  -2.48119887e+01  -2.48094925e+01  -2.48094051e+01
  -2.48081738e+01  -2.48080805e+01  -2.48066460e+01  -2.48041836e+01
  -2.48038126e+01  -2.48035088e+01  -1.45105327e+01  -1.44817288e+01
  -1.03490306e+01  -1.03465731e+01  -1.03426088e+01  -1.03423202e+01
  -1.03419956e+01  -1.03412757e+01  -1.03412583e+01  -1.03409976e+01
  -1.03407193e+01  -1.03388885e+01  -1.03015289e+01  -1.02843032e+01
  -1.02653904e+01  -1.02636827e+01  -1.02622449e+01  -1.02612944e+01
  -1.02602908e+01  -1.02590181e+01  -1.02587674e+01  -1.02580211e+01
  -1.02576766e+01  -1.02573499e+01  -1.02531586e+01  -1.02478672e+01
  -6.79769327e+00  -1.29911327e+00  -1.29715731e+00  -1.29085432e+00
  -1.28903219e+00  -1.28532207e+00  -1.28307814e+00  -1.27644023e+00
  -1.27452920e+00  -1.27398473e+00  -1.27253168e+00  -1.12090032e+00
  -9.31872968e-01  -9.20843967e-01  -9.19426797e-01  -8.99831003e-01
  -8.58795787e-01  -8.16893239e-01  -8.03746107e-01  -8.00049233e-01
  -7.99156749e-01  -7.98488344e-01  -7.95864283e-01  -7.82982984e-01
  -7.43153316e-01  -6.99530685e-01  -6.87789348e-01  -6.83569871e-01
  -6.82563494e-01  -6.71814827e-01  -6.65890101e-01  -6.42340155e-01
  -6.20892729e-01  -6.17340788e-01  -6.15726915e-01  -6.08980753e-01
  -6.07032023e-01  -6.02160849e-01  -5.97312871e-01  -5.85358223e-01
  -5.70929863e-01  -5.64988011e-01  -5.63542607e-01  -5.60224624e-01
  -5.58576284e-01  -5.46255550e-01  -5.43868654e-01  -5.36778475e-01
  -5.35782416e-01  -5.31916041e-01  -5.20240179e-01  -5.19501661e-01
  -5.14993988e-01  -5.10651515e-01  -5.07459795e-01  -5.03740980e-01
  -4.99844508e-01  -4.92540161e-01  -4.87727549e-01  -4.86677660e-01
  -4.86270140e-01  -4.83622799e-01  -4.77487695e-01  -4.68427949e-01
  -4.66592096e-01  -4.63638633e-01  -4.63383095e-01  -4.61352985e-01
  -4.60773567e-01  -4.56190788e-01  -4.52675632e-01  -4.36854601e-01
  -4.33881875e-01  -4.31926371e-01  -4.18785675e-01  -4.11145616e-01
  -4.03855918e-01  -4.02080433e-01  -4.00927747e-01  -3.96540773e-01
  -3.90997425e-01  -3.85857268e-01  -3.79748513e-01  -3.73840529e-01
  -3.66819522e-01  -3.45550687e-01  -3.34610424e-01  -3.18036393e-01
  -2.95431914e-01  -2.90089149e-01  -2.76512259e-01  -2.71157495e-01
  -2.70176321e-01  -2.66463728e-01  -2.63834662e-01  -1.31609718e-01
  -4.27145295e-02  -3.77806151e-02  -3.01401507e-02  -2.57950950e-02
  -1.95727399e-02  -1.57410017e-02  -1.38789058e-02  -6.53291168e-03
   2.32019724e-03   7.79017987e-03   4.47168238e-02   4.83047780e-02
   6.11772144e-02   6.87883143e-02   7.34304770e-02   7.68656680e-02
   8.48813074e-02   9.12721699e-02   9.46754408e-02   1.01121717e-01
   1.05724008e-01   1.14004635e-01   1.15969008e-01   1.20963479e-01
   1.23300157e-01   1.25512143e-01   1.29330050e-01   1.33347866e-01
   1.38712363e-01   1.47632858e-01   1.57627796e-01   1.66367393e-01
   1.69020380e-01   1.70889303e-01   1.78779353e-01   1.79784393e-01
   1.82247540e-01   1.84678256e-01   1.87037527e-01   1.89728852e-01
   1.92239822e-01   1.93633159e-01   1.96654980e-01   2.04966628e-01
   2.06754416e-01   2.07841060e-01   2.12315219e-01   2.12739726e-01
   2.18517346e-01   2.24461523e-01   2.25316098e-01   2.26799771e-01
   2.34093692e-01   2.36526491e-01   2.42079775e-01   2.46502485e-01
   2.50446394e-01   2.52355602e-01   2.61619371e-01   2.64518031e-01
   2.65752560e-01   2.72724960e-01   2.73546463e-01   2.77109095e-01
   2.82419183e-01   2.83749995e-01   2.85198357e-01   2.87735605e-01
   2.89359131e-01   2.91953921e-01   2.96137931e-01   2.99741438e-01
   3.03363936e-01   3.12135874e-01   3.13465207e-01   3.17601195e-01
   3.20185477e-01   3.28510713e-01   3.30467524e-01   3.33825733e-01
   3.37547123e-01   3.40002144e-01   3.44488194e-01   3.45840552e-01
   3.51482001e-01   3.53680441e-01   3.55810117e-01   3.58213857e-01
   3.62761794e-01   3.65086968e-01   3.68782560e-01   3.75260403e-01
   3.77106058e-01   3.80337156e-01   3.85142238e-01   3.86353392e-01
   3.89501007e-01   3.91820115e-01   3.98492074e-01   3.99227756e-01
   4.03332382e-01   4.05877421e-01   4.07121603e-01   4.10383189e-01
   4.13146907e-01   4.15322075e-01   4.17311962e-01   4.19413042e-01
   4.23267355e-01   4.26478260e-01   4.30592632e-01   4.31007730e-01
   4.34348265e-01   4.36532264e-01   4.37814782e-01   4.40208960e-01
   4.44476735e-01   4.47145839e-01   4.49812572e-01   4.56102650e-01
   4.58190351e-01   4.63024105e-01   4.65866595e-01   4.68597112e-01
   4.70971314e-01   4.74939215e-01   4.79317284e-01   4.82015784e-01
   4.83433601e-01   4.84670743e-01   4.90015589e-01   4.92646314e-01
   4.96894280e-01   5.02219270e-01   5.06886307e-01   5.10834074e-01
   5.16000378e-01   5.22378439e-01   5.24456151e-01   5.29988611e-01
   5.37167405e-01   5.42277437e-01   5.54883973e-01   5.58669281e-01
   5.65941483e-01   5.67949997e-01   5.74361021e-01   5.80910501e-01
   5.90900547e-01   5.92514080e-01   6.00393527e-01   6.08584761e-01
   6.12633505e-01   6.16086249e-01   6.20652158e-01   6.25718905e-01
   6.28365161e-01   6.34106938e-01   6.35823019e-01   6.37986972e-01
   6.40237862e-01   6.48183447e-01   6.51449319e-01   6.56443818e-01
   6.62426893e-01   6.63469183e-01   6.64670091e-01   6.68272550e-01
   6.72300236e-01   6.75283406e-01   6.76962735e-01   6.82819035e-01
   6.86737955e-01   6.92698058e-01   6.94254497e-01   6.96797909e-01
   7.06491439e-01   7.09098173e-01   7.12240594e-01   7.17177021e-01
   7.21054053e-01   7.22204967e-01   7.29532628e-01   7.32752543e-01
   7.36291532e-01   7.43896137e-01   7.47060407e-01   7.48849805e-01
   7.50557592e-01   7.58173953e-01   7.62548170e-01   7.65373842e-01
   7.68414429e-01   7.73020838e-01   7.80340733e-01   7.81150476e-01
   7.94111989e-01   7.98016028e-01   8.01244786e-01   8.02618729e-01
   8.04167336e-01   8.07814155e-01   8.13826720e-01   8.20123299e-01
   8.20825098e-01   8.28105219e-01   8.31404327e-01   8.37470532e-01
   8.39382058e-01   8.44664837e-01   8.51698947e-01   8.52945440e-01
   8.61056732e-01   8.68132105e-01   8.70516793e-01   8.75512111e-01
   8.82375700e-01   8.84110788e-01   8.86284345e-01   8.91746449e-01
   8.93866060e-01   8.98063333e-01   9.06223137e-01   9.09628408e-01
   9.12488705e-01   9.23261337e-01   9.26692350e-01   9.29018560e-01
   9.33369540e-01   9.35586885e-01   9.41901870e-01   9.48338617e-01
   9.48644029e-01   9.56738664e-01   9.58725090e-01   9.63813670e-01
   9.70727231e-01   9.72028059e-01   9.80686000e-01   9.84413806e-01
   9.87988622e-01   9.92246449e-01   9.93424413e-01   9.95932373e-01
   1.00274264e+00   1.00841625e+00   1.01664455e+00   1.02200411e+00
   1.03197013e+00   1.03736120e+00   1.04257691e+00   1.04464981e+00
   1.05177580e+00   1.06070306e+00   1.06382368e+00   1.06932603e+00
   1.07159494e+00   1.07912847e+00   1.08364219e+00   1.08944662e+00
   1.09934822e+00   1.10383298e+00   1.10539933e+00   1.10887826e+00
   1.11231341e+00   1.11602012e+00   1.11907049e+00   1.12493833e+00
   1.13003449e+00   1.13391206e+00   1.14158581e+00   1.14673727e+00
   1.15898394e+00   1.16480617e+00   1.16759534e+00   1.17482177e+00
   1.17814717e+00   1.18570346e+00   1.19010260e+00   1.19399266e+00
   1.19750964e+00   1.20156123e+00   1.20534696e+00   1.21096722e+00
   1.22143911e+00   1.22388027e+00   1.22765168e+00   1.23031207e+00
   1.23419457e+00   1.23756318e+00   1.24767045e+00   1.25101407e+00
   1.25399577e+00   1.25910032e+00   1.26417014e+00   1.26823851e+00
   1.27542474e+00   1.28198486e+00   1.28878674e+00   1.30226521e+00
   1.31122575e+00   1.31152112e+00   1.31598321e+00   1.32478229e+00
   1.32869303e+00   1.33515333e+00   1.33578770e+00   1.34582244e+00
   1.35560919e+00   1.36600219e+00   1.36825550e+00   1.37503879e+00
   1.38273007e+00   1.39165544e+00   1.39728151e+00   1.40187554e+00
   1.40690234e+00   1.41869374e+00   1.42127740e+00   1.42910459e+00
   1.43062726e+00   1.43589970e+00   1.43696147e+00   1.44378288e+00
   1.44596875e+00   1.45237315e+00   1.45469572e+00   1.46115551e+00
   1.46503651e+00   1.47037652e+00   1.47805810e+00   1.48004989e+00
   1.48929544e+00   1.49055569e+00   1.50158895e+00   1.50530459e+00
   1.50853603e+00   1.52036222e+00   1.52204208e+00   1.52937220e+00
   1.53765567e+00   1.54176844e+00   1.54492934e+00   1.55290640e+00
   1.56497799e+00   1.57395657e+00   1.57948786e+00   1.58484684e+00
   1.58941986e+00   1.60033488e+00   1.60637659e+00   1.61101785e+00
   1.61900935e+00   1.62159236e+00   1.63025564e+00   1.63127714e+00
   1.64368043e+00   1.64932375e+00   1.65676441e+00   1.66543064e+00
   1.66782386e+00   1.67312139e+00   1.67970315e+00   1.68071490e+00
   1.68640906e+00   1.68937825e+00   1.69572938e+00   1.70570372e+00
   1.71117351e+00   1.71779380e+00   1.72100713e+00   1.72319821e+00
   1.72890757e+00   1.73949103e+00   1.74337321e+00   1.74909661e+00
   1.75123188e+00   1.75934010e+00   1.76531204e+00   1.77123976e+00
   1.77707795e+00   1.78551915e+00   1.79065109e+00   1.80289636e+00
   1.81107800e+00   1.81469314e+00   1.82773387e+00   1.82984818e+00
   1.83503546e+00   1.84432508e+00   1.84948251e+00   1.85253376e+00
   1.86787055e+00   1.88310784e+00   1.88582701e+00   1.89250152e+00
   1.90968094e+00   1.91616230e+00   1.92407033e+00   1.92659420e+00
   1.93063408e+00   1.93443412e+00   1.94206501e+00   1.95091855e+00
   1.95683493e+00   1.95981085e+00   1.96707435e+00   1.97553878e+00
   1.97947500e+00   1.98851742e+00   1.99875728e+00   2.00027771e+00
   2.00673775e+00   2.01322072e+00   2.01760042e+00   2.02371394e+00
   2.02528407e+00   2.02812692e+00   2.03028973e+00   2.03460218e+00
   2.04555792e+00   2.05129092e+00   2.05868565e+00   2.06007879e+00
   2.06174761e+00   2.07208920e+00   2.07307950e+00   2.08380083e+00
   2.08477557e+00   2.09010637e+00   2.09066183e+00   2.09712747e+00
   2.10340327e+00   2.11356956e+00   2.11792009e+00   2.12103247e+00
   2.12663083e+00   2.13819418e+00   2.14367086e+00   2.14463405e+00
   2.15331651e+00   2.16304744e+00   2.17239909e+00   2.17309377e+00
   2.17590748e+00   2.18477731e+00   2.19244559e+00   2.19874477e+00
   2.20260871e+00   2.20757247e+00   2.20869077e+00   2.21310539e+00
   2.22062267e+00   2.22803769e+00   2.23093885e+00   2.23706525e+00
   2.24337562e+00   2.25049639e+00   2.25513324e+00   2.26004282e+00
   2.26910485e+00   2.27582189e+00   2.28417059e+00   2.29188115e+00
   2.30346657e+00   2.31097270e+00   2.32086464e+00   2.32721872e+00
   2.33188222e+00   2.33836716e+00   2.34233448e+00   2.36009592e+00
   2.36094892e+00   2.37190553e+00   2.37630497e+00   2.39933210e+00
   2.40828476e+00   2.42121196e+00   2.42667193e+00   2.43613405e+00
   2.43974912e+00   2.45590071e+00   2.46246814e+00   2.46976872e+00
   2.47907553e+00   2.48823797e+00   2.49565327e+00   2.49953942e+00
   2.50217665e+00   2.51071560e+00   2.51201309e+00   2.52157960e+00
   2.52365189e+00   2.53100945e+00   2.54021820e+00   2.54361161e+00
   2.54669039e+00   2.55372214e+00   2.55777486e+00   2.56484371e+00
   2.57541390e+00   2.57766618e+00   2.58299449e+00   2.58871707e+00
   2.59329245e+00   2.60051127e+00   2.60330503e+00   2.61056767e+00
   2.61965720e+00   2.62151658e+00   2.62709171e+00   2.63241610e+00
   2.63467783e+00   2.63740056e+00   2.63943627e+00   2.64569031e+00
   2.64983028e+00   2.65087983e+00   2.65725443e+00   2.66089690e+00
   2.66265154e+00   2.66953225e+00   2.67432551e+00   2.67966855e+00
   2.68521285e+00   2.68797975e+00   2.69548451e+00   2.70111278e+00
   2.70999011e+00   2.71103848e+00   2.71668068e+00   2.72035463e+00
   2.72584594e+00   2.72803973e+00   2.73619458e+00   2.73985132e+00
   2.74652440e+00   2.74970435e+00   2.76276979e+00   2.76651192e+00
   2.77566789e+00   2.77911670e+00   2.78424317e+00   2.78692586e+00
   2.79306088e+00   2.79784507e+00   2.80686130e+00   2.80934623e+00
   2.81381246e+00   2.81769312e+00   2.82330943e+00   2.82403188e+00
   2.82763327e+00   2.83245585e+00   2.83692222e+00   2.84248485e+00
   2.84873557e+00   2.85786176e+00   2.85985961e+00   2.86425465e+00
   2.87011660e+00   2.87126742e+00   2.87290360e+00   2.87604647e+00
   2.88301312e+00   2.88770406e+00   2.89185242e+00   2.89732958e+00
   2.90384796e+00   2.91080033e+00   2.91182886e+00   2.91636985e+00
   2.92103699e+00   2.92809555e+00   2.92917702e+00   2.93417692e+00
   2.94252233e+00   2.94712964e+00   2.95408119e+00   2.95748736e+00
   2.95948095e+00   2.96688673e+00   2.97034578e+00   2.97359515e+00
   2.97675114e+00   2.97947003e+00   2.98515196e+00   2.98824260e+00
   2.99809587e+00   3.00195587e+00   3.00687177e+00   3.01125347e+00
   3.01193969e+00   3.02827468e+00   3.03385498e+00   3.03850738e+00
   3.04235131e+00   3.04582829e+00   3.04901795e+00   3.05097608e+00
   3.05742793e+00   3.06533869e+00   3.06903826e+00   3.07670466e+00
   3.07738007e+00   3.09260322e+00   3.10077827e+00   3.10565408e+00
   3.10755416e+00   3.11663742e+00   3.12004038e+00   3.12125140e+00
   3.12688986e+00   3.13295476e+00   3.13476812e+00   3.13770654e+00
   3.14296702e+00   3.14582034e+00   3.14995542e+00   3.15301394e+00
   3.15674324e+00   3.16038768e+00   3.16583118e+00   3.16823109e+00
   3.17165745e+00   3.17508180e+00   3.18307314e+00   3.18757807e+00
   3.19283418e+00   3.19712785e+00   3.20092562e+00   3.20963059e+00
   3.21431754e+00   3.21690901e+00   3.22119175e+00   3.22493953e+00
   3.22718843e+00   3.23355422e+00   3.24269968e+00   3.24564792e+00
   3.25604560e+00   3.25964144e+00   3.26339575e+00   3.26583536e+00
   3.27214523e+00   3.27741121e+00   3.28117846e+00   3.28481055e+00
   3.28698442e+00   3.30238566e+00   3.30341151e+00   3.30905126e+00
   3.31208868e+00   3.32078218e+00   3.32535841e+00   3.33092160e+00
   3.33459288e+00   3.34061317e+00   3.34828629e+00   3.34914641e+00
   3.35514675e+00   3.35754633e+00   3.36346267e+00   3.36993421e+00
   3.38073813e+00   3.38093153e+00   3.38626909e+00   3.39064343e+00
   3.39638759e+00   3.39988652e+00   3.40263044e+00   3.40477221e+00
   3.41473342e+00   3.42077090e+00   3.42585155e+00   3.42977323e+00
   3.43618121e+00   3.44263045e+00   3.44414397e+00   3.45376140e+00
   3.45524913e+00   3.45869912e+00   3.46297499e+00   3.46716176e+00
   3.46903337e+00   3.47088908e+00   3.47283250e+00   3.47778307e+00
   3.48005225e+00   3.48041425e+00   3.48849677e+00   3.49275520e+00
   3.49417806e+00   3.49725263e+00   3.49887343e+00   3.50701753e+00
   3.51174380e+00   3.51244329e+00   3.51828824e+00   3.52313763e+00
   3.52619117e+00   3.53469224e+00   3.54066359e+00   3.54427401e+00
   3.54629783e+00   3.55330151e+00   3.56640789e+00   3.57709032e+00
   3.58042327e+00   3.59210961e+00   3.59532334e+00   3.60223276e+00
   3.60749260e+00   3.61364315e+00   3.61843167e+00   3.62640936e+00
   3.63463980e+00   3.63765634e+00   3.64493954e+00   3.64795698e+00
   3.66776084e+00   3.67003857e+00   3.67250017e+00   3.67884886e+00
   3.68320411e+00   3.69022523e+00   3.69493220e+00   3.70601339e+00
   3.71434400e+00   3.72149097e+00   3.73557800e+00   3.74206508e+00
   3.74463349e+00   3.75990393e+00   3.76416717e+00   3.77261360e+00
   3.78330351e+00   3.79352960e+00   3.80461716e+00   3.81159185e+00
   3.81901569e+00   3.82494382e+00   3.83708568e+00   3.85432259e+00
   3.86153314e+00   3.86989215e+00   3.87329073e+00   3.87483477e+00
   3.88448384e+00   3.89095062e+00   3.89962055e+00   3.91463238e+00
   3.92264047e+00   3.92946571e+00   3.94003128e+00   3.94828076e+00
   3.95657444e+00   3.95847607e+00   3.96519085e+00   3.98440673e+00
   4.00203121e+00   4.00877542e+00   4.01896940e+00   4.03053148e+00
   4.04360839e+00   4.05156628e+00   4.05528500e+00   4.06388718e+00
   4.06483182e+00   4.07385830e+00   4.08024461e+00   4.08674912e+00
   4.09473423e+00   4.10254192e+00   4.10829617e+00   4.11196663e+00
   4.12023398e+00   4.12157052e+00   4.13536973e+00   4.14178724e+00
   4.14421371e+00   4.15300669e+00   4.15504805e+00   4.16283727e+00
   4.16441091e+00   4.16713230e+00   4.17157159e+00   4.17468369e+00
   4.17704914e+00   4.18157432e+00   4.19277562e+00   4.19756177e+00
   4.20222980e+00   4.20745769e+00   4.21131693e+00   4.22022364e+00
   4.22169510e+00   4.22626320e+00   4.24071515e+00   4.24567152e+00
   4.25327530e+00   4.25631145e+00   4.26141562e+00   4.26840022e+00
   4.27247611e+00   4.27643559e+00   4.27982911e+00   4.29149164e+00
   4.29667916e+00   4.31341631e+00   4.32022501e+00   4.32688327e+00
   4.33982825e+00   4.34671560e+00   4.35636261e+00   4.36043411e+00
   4.36994472e+00   4.37760670e+00   4.39452938e+00   4.40105477e+00
   4.40878811e+00   4.41271925e+00   4.42024665e+00   4.43939840e+00
   4.44893495e+00   4.46330450e+00   4.49304185e+00   4.52661933e+00
   4.53788487e+00   4.54962387e+00   4.56063850e+00   4.56449564e+00
   4.57334789e+00   4.58715707e+00   4.59474682e+00   4.60370718e+00
   4.62425919e+00   4.62833407e+00   4.65075045e+00   4.66933006e+00
   4.68197883e+00   4.71932388e+00   4.73687333e+00   4.74965103e+00
   4.76224010e+00   4.77081869e+00   4.77999326e+00   4.79114267e+00
   4.79748246e+00   4.80381612e+00   4.81075610e+00   4.82042688e+00
   4.82851389e+00   4.84307587e+00   4.84767671e+00   4.86549804e+00
   4.87799842e+00   4.88732537e+00   4.89398194e+00   4.90306472e+00
   4.92209302e+00   4.93888108e+00   4.94467387e+00   4.95525322e+00
   4.97925781e+00   4.99052640e+00   5.01212611e+00   5.01963973e+00
   5.03288765e+00   5.04558619e+00   5.08125713e+00   5.08886702e+00
   5.11804440e+00   5.12632863e+00   5.14596541e+00   5.15496635e+00
   5.16770600e+00   5.18218251e+00   5.19900874e+00   5.22569437e+00
   5.23298147e+00   5.25693149e+00   5.29422749e+00   5.32886351e+00
   5.33929717e+00   5.36300424e+00   5.38740834e+00   5.39787933e+00
   5.40608763e+00   5.41811988e+00   5.43747499e+00   5.45346086e+00
   5.46014881e+00   5.46582157e+00   5.48607060e+00   5.55479718e+00
   5.56901360e+00   5.58040770e+00   5.62032377e+00   5.62194342e+00
   5.70006889e+00   5.70149573e+00   5.70968992e+00   5.74773752e+00
   5.82636248e+00   5.85427953e+00   5.86584230e+00   5.87120015e+00
   6.02522239e+00   6.26491620e+00   6.34416789e+00   6.85597227e+00
   6.85778888e+00   6.86164183e+00   6.86315688e+00   6.86565996e+00
   6.86712679e+00   6.86898859e+00   6.87005668e+00   6.87220039e+00
   6.87276708e+00   6.87395812e+00   6.87663767e+00   6.87800361e+00
   6.87875518e+00   6.87987241e+00   6.88477675e+00   6.89096071e+00
   6.89163251e+00   6.89399869e+00   6.90154013e+00   6.91880004e+00
   6.92031124e+00   6.94233116e+00   6.94326720e+00   6.96042777e+00
   6.96217735e+00   6.97523511e+00   6.97701086e+00   7.00415816e+00
   7.00694961e+00   7.02482952e+00   7.03122476e+00   7.05496111e+00
   7.05690756e+00   7.06722319e+00   7.06992449e+00   7.10884484e+00
   7.11121526e+00   7.14504984e+00   7.14669084e+00   7.16409457e+00
   7.16731777e+00   7.16925632e+00   7.18850655e+00   7.19301505e+00
   7.22643280e+00   7.22868496e+00   7.26149108e+00   7.26266426e+00
   7.27232871e+00   7.27460064e+00   7.27512724e+00   7.27547539e+00
   7.34074952e+00   7.34157978e+00   7.37401321e+00   7.37810534e+00
   7.39464376e+00   7.39688534e+00   7.42340755e+00   7.42586124e+00
   7.47612722e+00   7.47935142e+00   7.57374576e+00   7.57641822e+00
   7.61702307e+00   7.61969647e+00   7.69930573e+00   7.70183055e+00
   7.97441546e+00   7.97859578e+00   8.31714469e+00   8.31949543e+00
   8.34623348e+00   8.34919216e+00   8.38351670e+00   8.38756189e+00
   8.40014730e+00   8.43076502e+00   8.44199951e+00   8.46606376e+00
   8.47483103e+00   8.48039290e+00   8.55008078e+00   8.55140417e+00
   8.58563083e+00   8.59502652e+00   8.60142714e+00   8.60586405e+00
   8.69398831e+00   8.69618288e+00   8.72790425e+00   8.73011167e+00
   8.73592375e+00   8.74397835e+00   8.77084018e+00   8.77430650e+00
   8.80319804e+00   8.80561520e+00   8.81005724e+00   8.81344596e+00
   8.86209257e+00   8.86681138e+00   8.89930609e+00   8.90206047e+00
   8.94425618e+00   8.94963132e+00   8.95750558e+00   8.96024917e+00
   9.04966037e+00   9.05394947e+00   9.05499693e+00   9.05898815e+00
   9.08767604e+00   9.08919569e+00   9.09620679e+00   9.11321316e+00
   9.14179196e+00   9.15133377e+00   9.33501787e+00   9.34560513e+00
   1.57466469e+01   2.22411698e+01   2.23740842e+01   2.24079367e+01
   2.24701621e+01   2.26072560e+01   2.26186007e+01   2.26455081e+01
   2.26750357e+01   2.27880449e+01   2.28634829e+01   2.28930937e+01
   2.29027155e+01   2.29175454e+01   2.29239231e+01   2.29311124e+01
   2.30330525e+01   2.30401045e+01   2.30672792e+01   2.30982688e+01
   2.31721067e+01   2.32529704e+01   2.34912886e+01   2.35834021e+01
   2.36550245e+01   3.25236581e+01   3.30914252e+01   5.72386013e+01
   5.72509594e+01   5.74263556e+01   5.74324448e+01   5.75114785e+01
   5.75219919e+01   5.76582473e+01   5.76771668e+01   5.76907899e+01
   5.77338432e+01]
nelec by numeric integration = 261.999940873
    CPU time for vxc    132.98 sec, wall time      7.21 sec
    CPU time for df vj and vk    755.76 sec, wall time     51.89 sec
E1 = -11347.4923467  Ecoul = 5269.30156279  Exc = -253.976228759
cycle= 1 E= -2051.32563914593  delta_E= 1.22e-10  |g|= 2.64e-05  |ddm|= 6.15e-05
    CPU time for cycle= 1    893.27 sec, wall time     60.04 sec
  HOMO = -0.263834033044121  LUMO = -0.131611170095701
  mo_energy =
[ -2.48140909e+01  -2.48119884e+01  -2.48094894e+01  -2.48094042e+01
  -2.48081730e+01  -2.48080777e+01  -2.48066460e+01  -2.48041806e+01
  -2.48038132e+01  -2.48035046e+01  -1.45105262e+01  -1.44817474e+01
  -1.03490307e+01  -1.03465723e+01  -1.03426145e+01  -1.03423156e+01
  -1.03420017e+01  -1.03412725e+01  -1.03412522e+01  -1.03410012e+01
  -1.03407161e+01  -1.03388924e+01  -1.03015230e+01  -1.02843062e+01
  -1.02653959e+01  -1.02636831e+01  -1.02622405e+01  -1.02612922e+01
  -1.02602909e+01  -1.02590189e+01  -1.02587648e+01  -1.02580222e+01
  -1.02576719e+01  -1.02573495e+01  -1.02531558e+01  -1.02478642e+01
  -6.79768903e+00  -1.29911292e+00  -1.29715675e+00  -1.29085378e+00
  -1.28903131e+00  -1.28532125e+00  -1.28307751e+00  -1.27644025e+00
  -1.27452742e+00  -1.27398336e+00  -1.27253138e+00  -1.12090287e+00
  -9.31872462e-01  -9.20843501e-01  -9.19426453e-01  -8.99830857e-01
  -8.58795956e-01  -8.16892239e-01  -8.03745208e-01  -8.00048967e-01
  -7.99155865e-01  -7.98488134e-01  -7.95864374e-01  -7.82982744e-01
  -7.43153125e-01  -6.99530039e-01  -6.87788747e-01  -6.83569219e-01
  -6.82562788e-01  -6.71814560e-01  -6.65890256e-01  -6.42339970e-01
  -6.20892137e-01  -6.17340180e-01  -6.15726316e-01  -6.08979914e-01
  -6.07031484e-01  -6.02160356e-01  -5.97312088e-01  -5.85357846e-01
  -5.70930193e-01  -5.64987639e-01  -5.63542059e-01  -5.60224061e-01
  -5.58575759e-01  -5.46255350e-01  -5.43868056e-01  -5.36777770e-01
  -5.35781344e-01  -5.31915491e-01  -5.20239714e-01  -5.19501686e-01
  -5.14993256e-01  -5.10650720e-01  -5.07459656e-01  -5.03740752e-01
  -4.99844184e-01  -4.92539719e-01  -4.87725948e-01  -4.86676860e-01
  -4.86269595e-01  -4.83622685e-01  -4.77487158e-01  -4.68428035e-01
  -4.66591616e-01  -4.63638083e-01  -4.63382758e-01  -4.61352003e-01
  -4.60773106e-01  -4.56190039e-01  -4.52674460e-01  -4.36854166e-01
  -4.33880891e-01  -4.31925620e-01  -4.18784932e-01  -4.11145290e-01
  -4.03855559e-01  -4.02080151e-01  -4.00927479e-01  -3.96540065e-01
  -3.90997232e-01  -3.85856569e-01  -3.79747614e-01  -3.73839942e-01
  -3.66818380e-01  -3.45550623e-01  -3.34613355e-01  -3.18036278e-01
  -2.95430986e-01  -2.90088805e-01  -2.76511422e-01  -2.71156909e-01
  -2.70175887e-01  -2.66463474e-01  -2.63834033e-01  -1.31611170e-01
  -4.27140041e-02  -3.77797041e-02  -3.01391807e-02  -2.57948670e-02
  -1.95719663e-02  -1.57405502e-02  -1.38785468e-02  -6.53252477e-03
   2.32017838e-03   7.78988321e-03   4.47170079e-02   4.83044774e-02
   6.11773008e-02   6.87886375e-02   7.34302450e-02   7.68659150e-02
   8.48812782e-02   9.12725616e-02   9.46757501e-02   1.01121670e-01
   1.05724354e-01   1.14005201e-01   1.15969182e-01   1.20964055e-01
   1.23300104e-01   1.25512243e-01   1.29330838e-01   1.33348498e-01
   1.38712785e-01   1.47633654e-01   1.57628197e-01   1.66367874e-01
   1.69021291e-01   1.70889379e-01   1.78779787e-01   1.79784420e-01
   1.82247671e-01   1.84678398e-01   1.87037666e-01   1.89728860e-01
   1.92239916e-01   1.93633288e-01   1.96655174e-01   2.04967062e-01
   2.06754444e-01   2.07841532e-01   2.12315458e-01   2.12739989e-01
   2.18517370e-01   2.24461910e-01   2.25316078e-01   2.26800135e-01
   2.34093826e-01   2.36526911e-01   2.42080147e-01   2.46502669e-01
   2.50447133e-01   2.52356182e-01   2.61619389e-01   2.64518222e-01
   2.65752883e-01   2.72725054e-01   2.73546771e-01   2.77109211e-01
   2.82419483e-01   2.83750045e-01   2.85198979e-01   2.87735836e-01
   2.89359117e-01   2.91954502e-01   2.96138096e-01   2.99742397e-01
   3.03364135e-01   3.12136110e-01   3.13465709e-01   3.17601452e-01
   3.20185886e-01   3.28510612e-01   3.30468139e-01   3.33825966e-01
   3.37547376e-01   3.40002730e-01   3.44488646e-01   3.45840782e-01
   3.51481348e-01   3.53681137e-01   3.55810733e-01   3.58214084e-01
   3.62762052e-01   3.65087309e-01   3.68782983e-01   3.75260843e-01
   3.77106227e-01   3.80337337e-01   3.85142191e-01   3.86353839e-01
   3.89501350e-01   3.91820004e-01   3.98492127e-01   3.99227893e-01
   4.03332674e-01   4.05877860e-01   4.07121970e-01   4.10383611e-01
   4.13147144e-01   4.15322300e-01   4.17312163e-01   4.19412801e-01
   4.23267569e-01   4.26478822e-01   4.30592833e-01   4.31007874e-01
   4.34348589e-01   4.36532881e-01   4.37814948e-01   4.40209179e-01
   4.44477000e-01   4.47146088e-01   4.49813160e-01   4.56103100e-01
   4.58190411e-01   4.63024306e-01   4.65866865e-01   4.68597604e-01
   4.70971384e-01   4.74939343e-01   4.79317384e-01   4.82016157e-01
   4.83433859e-01   4.84671334e-01   4.90015910e-01   4.92646808e-01
   4.96894726e-01   5.02219764e-01   5.06886496e-01   5.10834213e-01
   5.16000549e-01   5.22378462e-01   5.24456282e-01   5.29989150e-01
   5.37167660e-01   5.42278022e-01   5.54884570e-01   5.58669684e-01
   5.65942020e-01   5.67950270e-01   5.74361318e-01   5.80910409e-01
   5.90900912e-01   5.92514535e-01   6.00394116e-01   6.08585501e-01
   6.12633769e-01   6.16086826e-01   6.20652789e-01   6.25719461e-01
   6.28365212e-01   6.34107359e-01   6.35823277e-01   6.37987370e-01
   6.40238300e-01   6.48183658e-01   6.51449721e-01   6.56444074e-01
   6.62427070e-01   6.63470064e-01   6.64670384e-01   6.68272644e-01
   6.72300397e-01   6.75283948e-01   6.76962943e-01   6.82819239e-01
   6.86738516e-01   6.92698213e-01   6.94254978e-01   6.96798397e-01
   7.06491912e-01   7.09098541e-01   7.12241196e-01   7.17177493e-01
   7.21054186e-01   7.22205301e-01   7.29532863e-01   7.32752376e-01
   7.36291787e-01   7.43896533e-01   7.47060896e-01   7.48850243e-01
   7.50558127e-01   7.58174189e-01   7.62548589e-01   7.65373960e-01
   7.68414750e-01   7.73021303e-01   7.80341018e-01   7.81151117e-01
   7.94112375e-01   7.98016615e-01   8.01245110e-01   8.02618978e-01
   8.04167627e-01   8.07814254e-01   8.13827129e-01   8.20123638e-01
   8.20825297e-01   8.28105458e-01   8.31404881e-01   8.37471091e-01
   8.39382636e-01   8.44665331e-01   8.51699224e-01   8.52945850e-01
   8.61056883e-01   8.68132469e-01   8.70517276e-01   8.75512509e-01
   8.82375915e-01   8.84111110e-01   8.86284498e-01   8.91746960e-01
   8.93866265e-01   8.98063561e-01   9.06223377e-01   9.09628796e-01
   9.12489273e-01   9.23261556e-01   9.26692754e-01   9.29019039e-01
   9.33369913e-01   9.35587072e-01   9.41902089e-01   9.48338822e-01
   9.48644236e-01   9.56739153e-01   9.58725261e-01   9.63813824e-01
   9.70727570e-01   9.72028443e-01   9.80686328e-01   9.84413949e-01
   9.87989199e-01   9.92246663e-01   9.93424966e-01   9.95932700e-01
   1.00274277e+00   1.00841688e+00   1.01664502e+00   1.02200450e+00
   1.03197041e+00   1.03736149e+00   1.04257731e+00   1.04464997e+00
   1.05177601e+00   1.06070347e+00   1.06382403e+00   1.06932636e+00
   1.07159534e+00   1.07912900e+00   1.08364257e+00   1.08944690e+00
   1.09934869e+00   1.10383318e+00   1.10539923e+00   1.10887857e+00
   1.11231355e+00   1.11602053e+00   1.11907069e+00   1.12493875e+00
   1.13003481e+00   1.13391275e+00   1.14158633e+00   1.14673781e+00
   1.15898448e+00   1.16480669e+00   1.16759597e+00   1.17482226e+00
   1.17814756e+00   1.18570389e+00   1.19010334e+00   1.19399307e+00
   1.19750996e+00   1.20156179e+00   1.20534725e+00   1.21096750e+00
   1.22143937e+00   1.22388093e+00   1.22765222e+00   1.23031233e+00
   1.23419524e+00   1.23756367e+00   1.24767089e+00   1.25101441e+00
   1.25399622e+00   1.25910052e+00   1.26417081e+00   1.26823910e+00
   1.27542553e+00   1.28198529e+00   1.28878693e+00   1.30226579e+00
   1.31122591e+00   1.31152157e+00   1.31598368e+00   1.32478301e+00
   1.32869376e+00   1.33515416e+00   1.33578799e+00   1.34582253e+00
   1.35560982e+00   1.36600281e+00   1.36825580e+00   1.37503913e+00
   1.38273010e+00   1.39165565e+00   1.39728219e+00   1.40187596e+00
   1.40690311e+00   1.41869388e+00   1.42127750e+00   1.42910468e+00
   1.43062767e+00   1.43590014e+00   1.43696198e+00   1.44378283e+00
   1.44596910e+00   1.45237327e+00   1.45469587e+00   1.46115572e+00
   1.46503685e+00   1.47037697e+00   1.47805847e+00   1.48005014e+00
   1.48929573e+00   1.49055620e+00   1.50158891e+00   1.50530466e+00
   1.50853616e+00   1.52036292e+00   1.52204247e+00   1.52937234e+00
   1.53765603e+00   1.54176876e+00   1.54492996e+00   1.55290735e+00
   1.56497796e+00   1.57395668e+00   1.57948799e+00   1.58484693e+00
   1.58942044e+00   1.60033497e+00   1.60637642e+00   1.61101875e+00
   1.61900966e+00   1.62159174e+00   1.63025606e+00   1.63127770e+00
   1.64368107e+00   1.64932380e+00   1.65676520e+00   1.66543080e+00
   1.66782413e+00   1.67312148e+00   1.67970351e+00   1.68071545e+00
   1.68640941e+00   1.68937901e+00   1.69572980e+00   1.70570416e+00
   1.71117373e+00   1.71779373e+00   1.72100750e+00   1.72319914e+00
   1.72890817e+00   1.73949136e+00   1.74337346e+00   1.74909727e+00
   1.75123202e+00   1.75934042e+00   1.76531321e+00   1.77124003e+00
   1.77707849e+00   1.78551955e+00   1.79065134e+00   1.80289682e+00
   1.81107873e+00   1.81469357e+00   1.82773399e+00   1.82984879e+00
   1.83503613e+00   1.84432536e+00   1.84948292e+00   1.85253409e+00
   1.86787091e+00   1.88310885e+00   1.88582705e+00   1.89250198e+00
   1.90968174e+00   1.91616290e+00   1.92407065e+00   1.92659449e+00
   1.93063466e+00   1.93443414e+00   1.94206563e+00   1.95091933e+00
   1.95683524e+00   1.95981158e+00   1.96707503e+00   1.97553949e+00
   1.97947537e+00   1.98851808e+00   1.99875765e+00   2.00027777e+00
   2.00673855e+00   2.01322107e+00   2.01760063e+00   2.02371449e+00
   2.02528468e+00   2.02812700e+00   2.03029035e+00   2.03460256e+00
   2.04555820e+00   2.05129195e+00   2.05868599e+00   2.06007928e+00
   2.06174762e+00   2.07208945e+00   2.07308001e+00   2.08380151e+00
   2.08477598e+00   2.09010703e+00   2.09066255e+00   2.09712814e+00
   2.10340365e+00   2.11357007e+00   2.11792049e+00   2.12103314e+00
   2.12663120e+00   2.13819509e+00   2.14367146e+00   2.14463489e+00
   2.15331749e+00   2.16304779e+00   2.17239986e+00   2.17309462e+00
   2.17590783e+00   2.18477784e+00   2.19244576e+00   2.19874528e+00
   2.20260876e+00   2.20757256e+00   2.20869134e+00   2.21310609e+00
   2.22062280e+00   2.22803859e+00   2.23093965e+00   2.23706572e+00
   2.24337603e+00   2.25049639e+00   2.25513409e+00   2.26004326e+00
   2.26910569e+00   2.27582230e+00   2.28417067e+00   2.29188182e+00
   2.30346682e+00   2.31097322e+00   2.32086469e+00   2.32721977e+00
   2.33188276e+00   2.33836740e+00   2.34233508e+00   2.36009657e+00
   2.36094944e+00   2.37190586e+00   2.37630539e+00   2.39933231e+00
   2.40828524e+00   2.42121279e+00   2.42667251e+00   2.43613421e+00
   2.43974990e+00   2.45590131e+00   2.46246850e+00   2.46976933e+00
   2.47907589e+00   2.48823807e+00   2.49565348e+00   2.49953975e+00
   2.50217697e+00   2.51071558e+00   2.51201360e+00   2.52158040e+00
   2.52365214e+00   2.53100992e+00   2.54021832e+00   2.54361215e+00
   2.54669084e+00   2.55372226e+00   2.55777486e+00   2.56484478e+00
   2.57541445e+00   2.57766659e+00   2.58299477e+00   2.58871723e+00
   2.59329288e+00   2.60051171e+00   2.60330536e+00   2.61056778e+00
   2.61965758e+00   2.62151691e+00   2.62709231e+00   2.63241615e+00
   2.63467832e+00   2.63740084e+00   2.63943672e+00   2.64569061e+00
   2.64983067e+00   2.65088040e+00   2.65725484e+00   2.66089748e+00
   2.66265193e+00   2.66953266e+00   2.67432612e+00   2.67966905e+00
   2.68521346e+00   2.68798057e+00   2.69548514e+00   2.70111331e+00
   2.70999043e+00   2.71103910e+00   2.71668143e+00   2.72035517e+00
   2.72584620e+00   2.72804025e+00   2.73619556e+00   2.73985156e+00
   2.74652475e+00   2.74970519e+00   2.76277033e+00   2.76651293e+00
   2.77566809e+00   2.77911710e+00   2.78424389e+00   2.78692660e+00
   2.79306116e+00   2.79784559e+00   2.80686160e+00   2.80934676e+00
   2.81381278e+00   2.81769366e+00   2.82331000e+00   2.82403217e+00
   2.82763386e+00   2.83245643e+00   2.83692295e+00   2.84248537e+00
   2.84873536e+00   2.85786206e+00   2.85986022e+00   2.86425537e+00
   2.87011692e+00   2.87126783e+00   2.87290375e+00   2.87604682e+00
   2.88301409e+00   2.88770491e+00   2.89185274e+00   2.89733008e+00
   2.90384863e+00   2.91080069e+00   2.91182922e+00   2.91637012e+00
   2.92103789e+00   2.92809618e+00   2.92917734e+00   2.93417712e+00
   2.94252300e+00   2.94712984e+00   2.95408148e+00   2.95748744e+00
   2.95948161e+00   2.96688740e+00   2.97034653e+00   2.97359548e+00
   2.97675160e+00   2.97947075e+00   2.98515191e+00   2.98824299e+00
   2.99809650e+00   3.00195534e+00   3.00687190e+00   3.01125405e+00
   3.01193997e+00   3.02827536e+00   3.03385541e+00   3.03850787e+00
   3.04235196e+00   3.04582860e+00   3.04901821e+00   3.05097619e+00
   3.05742839e+00   3.06533922e+00   3.06903859e+00   3.07670511e+00
   3.07738049e+00   3.09260336e+00   3.10077850e+00   3.10565413e+00
   3.10755448e+00   3.11663794e+00   3.12004077e+00   3.12125180e+00
   3.12689031e+00   3.13295528e+00   3.13476882e+00   3.13770709e+00
   3.14296760e+00   3.14582058e+00   3.14995588e+00   3.15301446e+00
   3.15674367e+00   3.16038833e+00   3.16583138e+00   3.16823170e+00
   3.17165831e+00   3.17508254e+00   3.18307359e+00   3.18757852e+00
   3.19283473e+00   3.19712834e+00   3.20092615e+00   3.20963047e+00
   3.21431801e+00   3.21690948e+00   3.22119188e+00   3.22494006e+00
   3.22718909e+00   3.23355443e+00   3.24270023e+00   3.24564836e+00
   3.25604604e+00   3.25964174e+00   3.26339589e+00   3.26583598e+00
   3.27214518e+00   3.27741180e+00   3.28117860e+00   3.28481093e+00
   3.28698526e+00   3.30238584e+00   3.30341211e+00   3.30905217e+00
   3.31208888e+00   3.32078196e+00   3.32535896e+00   3.33092255e+00
   3.33459336e+00   3.34061383e+00   3.34828655e+00   3.34914708e+00
   3.35514688e+00   3.35754706e+00   3.36346303e+00   3.36993518e+00
   3.38073870e+00   3.38093232e+00   3.38626996e+00   3.39064339e+00
   3.39638851e+00   3.39988650e+00   3.40263132e+00   3.40477240e+00
   3.41473384e+00   3.42077200e+00   3.42585179e+00   3.42977401e+00
   3.43618155e+00   3.44263061e+00   3.44414498e+00   3.45376167e+00
   3.45524961e+00   3.45869963e+00   3.46297508e+00   3.46716191e+00
   3.46903418e+00   3.47088939e+00   3.47283296e+00   3.47778363e+00
   3.48005278e+00   3.48041482e+00   3.48849691e+00   3.49275591e+00
   3.49417846e+00   3.49725285e+00   3.49887394e+00   3.50701799e+00
   3.51174434e+00   3.51244389e+00   3.51828910e+00   3.52313819e+00
   3.52619200e+00   3.53469278e+00   3.54066431e+00   3.54427459e+00
   3.54629815e+00   3.55330192e+00   3.56640827e+00   3.57709106e+00
   3.58042396e+00   3.59211016e+00   3.59532427e+00   3.60223386e+00
   3.60749300e+00   3.61364424e+00   3.61843234e+00   3.62641017e+00
   3.63464042e+00   3.63765683e+00   3.64494022e+00   3.64795780e+00
   3.66776132e+00   3.67003912e+00   3.67250087e+00   3.67884968e+00
   3.68320475e+00   3.69022561e+00   3.69493281e+00   3.70601389e+00
   3.71434489e+00   3.72149188e+00   3.73557885e+00   3.74206548e+00
   3.74463404e+00   3.75990440e+00   3.76416769e+00   3.77261465e+00
   3.78330352e+00   3.79352984e+00   3.80461750e+00   3.81159214e+00
   3.81901587e+00   3.82494446e+00   3.83708628e+00   3.85432324e+00
   3.86153320e+00   3.86989241e+00   3.87329111e+00   3.87483540e+00
   3.88448425e+00   3.89095062e+00   3.89962092e+00   3.91463268e+00
   3.92263997e+00   3.92946610e+00   3.94003138e+00   3.94828096e+00
   3.95657494e+00   3.95847659e+00   3.96519146e+00   3.98440653e+00
   4.00203170e+00   4.00877572e+00   4.01896919e+00   4.03053210e+00
   4.04360920e+00   4.05156613e+00   4.05528503e+00   4.06388759e+00
   4.06483239e+00   4.07385888e+00   4.08024503e+00   4.08674973e+00
   4.09473493e+00   4.10254250e+00   4.10829672e+00   4.11196667e+00
   4.12023437e+00   4.12157103e+00   4.13537028e+00   4.14178813e+00
   4.14421383e+00   4.15300730e+00   4.15504844e+00   4.16283770e+00
   4.16441139e+00   4.16713287e+00   4.17157235e+00   4.17468430e+00
   4.17704954e+00   4.18157443e+00   4.19277604e+00   4.19756259e+00
   4.20223027e+00   4.20745809e+00   4.21131706e+00   4.22022463e+00
   4.22169542e+00   4.22626360e+00   4.24071536e+00   4.24567220e+00
   4.25327595e+00   4.25631186e+00   4.26141611e+00   4.26840129e+00
   4.27247655e+00   4.27643607e+00   4.27982968e+00   4.29149210e+00
   4.29667971e+00   4.31341687e+00   4.32022483e+00   4.32688395e+00
   4.33982901e+00   4.34671687e+00   4.35636343e+00   4.36043455e+00
   4.36994537e+00   4.37760715e+00   4.39452940e+00   4.40105548e+00
   4.40878813e+00   4.41271989e+00   4.42024627e+00   4.43939914e+00
   4.44893511e+00   4.46330530e+00   4.49304227e+00   4.52661950e+00
   4.53788557e+00   4.54962390e+00   4.56063931e+00   4.56449569e+00
   4.57334813e+00   4.58715787e+00   4.59474768e+00   4.60370798e+00
   4.62425992e+00   4.62833494e+00   4.65075088e+00   4.66933078e+00
   4.68197919e+00   4.71932185e+00   4.73687326e+00   4.74965128e+00
   4.76224002e+00   4.77081910e+00   4.77999317e+00   4.79114216e+00
   4.79748289e+00   4.80381604e+00   4.81075549e+00   4.82042685e+00
   4.82851448e+00   4.84307319e+00   4.84767697e+00   4.86549796e+00
   4.87799775e+00   4.88732503e+00   4.89398081e+00   4.90306526e+00
   4.92209314e+00   4.93888175e+00   4.94467327e+00   4.95525384e+00
   4.97925845e+00   4.99052658e+00   5.01212671e+00   5.01963879e+00
   5.03288663e+00   5.04558491e+00   5.08125732e+00   5.08886784e+00
   5.11804529e+00   5.12632804e+00   5.14596447e+00   5.15496667e+00
   5.16770561e+00   5.18218144e+00   5.19900919e+00   5.22569561e+00
   5.23298068e+00   5.25693199e+00   5.29422616e+00   5.32886399e+00
   5.33929779e+00   5.36300491e+00   5.38740878e+00   5.39787996e+00
   5.40608852e+00   5.41812073e+00   5.43747569e+00   5.45346126e+00
   5.46014905e+00   5.46582203e+00   5.48607073e+00   5.55479741e+00
   5.56901423e+00   5.58040671e+00   5.62032219e+00   5.62194176e+00
   5.70006689e+00   5.70149622e+00   5.70968972e+00   5.74773540e+00
   5.82636261e+00   5.85427963e+00   5.86584304e+00   5.87120094e+00
   6.02522260e+00   6.26491495e+00   6.34416651e+00   6.85597263e+00
   6.85778928e+00   6.86164256e+00   6.86315767e+00   6.86566051e+00
   6.86712716e+00   6.86898938e+00   6.87005711e+00   6.87220104e+00
   6.87276760e+00   6.87395872e+00   6.87663847e+00   6.87800439e+00
   6.87875668e+00   6.87987341e+00   6.88477720e+00   6.89096286e+00
   6.89163220e+00   6.89400071e+00   6.90153994e+00   6.91880056e+00
   6.92031183e+00   6.94233191e+00   6.94326801e+00   6.96042825e+00
   6.96217796e+00   6.97523575e+00   6.97701156e+00   7.00415896e+00
   7.00695049e+00   7.02483023e+00   7.03122559e+00   7.05496174e+00
   7.05690821e+00   7.06722381e+00   7.06992504e+00   7.10884553e+00
   7.11121618e+00   7.14505033e+00   7.14669139e+00   7.16409249e+00
   7.16731857e+00   7.16925650e+00   7.18850735e+00   7.19301537e+00
   7.22643344e+00   7.22868569e+00   7.26149160e+00   7.26266476e+00
   7.27232943e+00   7.27460143e+00   7.27512803e+00   7.27547607e+00
   7.34075006e+00   7.34158047e+00   7.37401408e+00   7.37810612e+00
   7.39464436e+00   7.39688596e+00   7.42340830e+00   7.42586203e+00
   7.47612795e+00   7.47935217e+00   7.57374653e+00   7.57641889e+00
   7.61702364e+00   7.61969706e+00   7.69930650e+00   7.70183132e+00
   7.97441607e+00   7.97859639e+00   8.31714537e+00   8.31949608e+00
   8.34623453e+00   8.34919318e+00   8.38351756e+00   8.38756264e+00
   8.40014822e+00   8.43076695e+00   8.44200077e+00   8.46606383e+00
   8.47483171e+00   8.48039360e+00   8.55008174e+00   8.55140515e+00
   8.58563085e+00   8.59502744e+00   8.60142892e+00   8.60586519e+00
   8.69398914e+00   8.69618366e+00   8.72790520e+00   8.73011270e+00
   8.73592468e+00   8.74397937e+00   8.77084090e+00   8.77430734e+00
   8.80319904e+00   8.80561594e+00   8.81005813e+00   8.81344692e+00
   8.86209338e+00   8.86681204e+00   8.89930696e+00   8.90206141e+00
   8.94425704e+00   8.94963250e+00   8.95750593e+00   8.96024992e+00
   9.04966252e+00   9.05395056e+00   9.05499746e+00   9.05898829e+00
   9.08767681e+00   9.08919651e+00   9.09620777e+00   9.11321428e+00
   9.14179275e+00   9.15133453e+00   9.33501870e+00   9.34560594e+00
   1.57466509e+01   2.22411703e+01   2.23740837e+01   2.24079367e+01
   2.24701622e+01   2.26072555e+01   2.26186013e+01   2.26455059e+01
   2.26750364e+01   2.27880476e+01   2.28634846e+01   2.28930941e+01
   2.29027155e+01   2.29175452e+01   2.29239232e+01   2.29311123e+01
   2.30330520e+01   2.30401047e+01   2.30672815e+01   2.30982687e+01
   2.31721078e+01   2.32529739e+01   2.34912898e+01   2.35834031e+01
   2.36550259e+01   3.25236408e+01   3.30914312e+01   5.72386027e+01
   5.72509607e+01   5.74263574e+01   5.74324465e+01   5.75114794e+01
   5.75219928e+01   5.76582500e+01   5.76771702e+01   5.76907900e+01
   5.77338431e+01]
nelec by numeric integration = 261.999940874
    CPU time for vxc    138.50 sec, wall time      7.49 sec
    CPU time for df vj and vk    748.09 sec, wall time     44.70 sec
E1 = -11347.4919824  Ecoul = 5269.30119254  Exc = -253.97622281
cycle= 2 E= -2051.32563914532  delta_E= 6.06e-10  |g|= 5.78e-05  |ddm|= 0.000119
    CPU time for cycle= 2    891.14 sec, wall time     53.31 sec
  HOMO = -0.263834651420542  LUMO = -0.131610672979329
  mo_energy =
[ -2.48140910e+01  -2.48119884e+01  -2.48094908e+01  -2.48094045e+01
  -2.48081732e+01  -2.48080790e+01  -2.48066461e+01  -2.48041822e+01
  -2.48038130e+01  -2.48035071e+01  -1.45105330e+01  -1.44817357e+01
  -1.03490302e+01  -1.03465723e+01  -1.03426116e+01  -1.03423182e+01
  -1.03419984e+01  -1.03412745e+01  -1.03412561e+01  -1.03409990e+01
  -1.03407181e+01  -1.03388904e+01  -1.03015276e+01  -1.02843036e+01
  -1.02653921e+01  -1.02636830e+01  -1.02622443e+01  -1.02612938e+01
  -1.02602911e+01  -1.02590186e+01  -1.02587671e+01  -1.02580221e+01
  -1.02576755e+01  -1.02573493e+01  -1.02531577e+01  -1.02478664e+01
  -6.79769240e+00  -1.29911299e+00  -1.29715694e+00  -1.29085408e+00
  -1.28903181e+00  -1.28532173e+00  -1.28307789e+00  -1.27644032e+00
  -1.27452846e+00  -1.27398423e+00  -1.27253160e+00  -1.12090212e+00
  -9.31873194e-01  -9.20843970e-01  -9.19426799e-01  -8.99831062e-01
  -8.58796197e-01  -8.16893073e-01  -8.03745936e-01  -8.00049280e-01
  -7.99156744e-01  -7.98488361e-01  -7.95864353e-01  -7.82983059e-01
  -7.43153594e-01  -6.99530613e-01  -6.87789233e-01  -6.83569702e-01
  -6.82563279e-01  -6.71814963e-01  -6.65890444e-01  -6.42340308e-01
  -6.20892590e-01  -6.17340602e-01  -6.15726896e-01  -6.08980524e-01
  -6.07031892e-01  -6.02160719e-01  -5.97312561e-01  -5.85358286e-01
  -5.70930245e-01  -5.64987865e-01  -5.63542378e-01  -5.60224405e-01
  -5.58576089e-01  -5.46255507e-01  -5.43868443e-01  -5.36778410e-01
  -5.35782141e-01  -5.31916104e-01  -5.20240096e-01  -5.19501773e-01
  -5.14993709e-01  -5.10651304e-01  -5.07459924e-01  -5.03741065e-01
  -4.99844632e-01  -4.92540006e-01  -4.87726858e-01  -4.86677324e-01
  -4.86270029e-01  -4.83622907e-01  -4.77487724e-01  -4.68428030e-01
  -4.66591970e-01  -4.63638312e-01  -4.63383048e-01  -4.61352637e-01
  -4.60773425e-01  -4.56190811e-01  -4.52675339e-01  -4.36854450e-01
  -4.33881585e-01  -4.31926183e-01  -4.18785559e-01  -4.11145611e-01
  -4.03855825e-01  -4.02080446e-01  -4.00927710e-01  -3.96540771e-01
  -3.90997539e-01  -3.85857246e-01  -3.79748425e-01  -3.73840451e-01
  -3.66819345e-01  -3.45550903e-01  -3.34611736e-01  -3.18036561e-01
  -2.95431885e-01  -2.90089055e-01  -2.76512126e-01  -2.71157435e-01
  -2.70176287e-01  -2.66463747e-01  -2.63834651e-01  -1.31610673e-01
  -4.27144303e-02  -3.77805413e-02  -3.01400443e-02  -2.57951445e-02
  -1.95726282e-02  -1.57410162e-02  -1.38789081e-02  -6.53283745e-03
   2.32015964e-03   7.78996679e-03   4.47167588e-02   4.83047328e-02
   6.11771312e-02   6.87883173e-02   7.34303667e-02   7.68656846e-02
   8.48812383e-02   9.12721936e-02   9.46754441e-02   1.01121674e-01
   1.05724028e-01   1.14004717e-01   1.15968985e-01   1.20963510e-01
   1.23300065e-01   1.25512127e-01   1.29330125e-01   1.33347938e-01
   1.38712382e-01   1.47632952e-01   1.57627807e-01   1.66367404e-01
   1.69020518e-01   1.70889227e-01   1.78779507e-01   1.79784299e-01
   1.82247461e-01   1.84678146e-01   1.87037491e-01   1.89728725e-01
   1.92239780e-01   1.93633133e-01   1.96654859e-01   2.04966608e-01
   2.06754356e-01   2.07841077e-01   2.12315243e-01   2.12739762e-01
   2.18517253e-01   2.24461543e-01   2.25315998e-01   2.26799781e-01
   2.34093634e-01   2.36526499e-01   2.42079767e-01   2.46502472e-01
   2.50446570e-01   2.52355673e-01   2.61619273e-01   2.64517994e-01
   2.65752577e-01   2.72724915e-01   2.73546463e-01   2.77109027e-01
   2.82419225e-01   2.83749902e-01   2.85198536e-01   2.87735585e-01
   2.89359034e-01   2.91953939e-01   2.96137906e-01   2.99741697e-01
   3.03363866e-01   3.12135871e-01   3.13465295e-01   3.17601228e-01
   3.20185518e-01   3.28510630e-01   3.30467605e-01   3.33825729e-01
   3.37547089e-01   3.40002178e-01   3.44488208e-01   3.45840558e-01
   3.51481714e-01   3.53680474e-01   3.55810206e-01   3.58213871e-01
   3.62761756e-01   3.65086942e-01   3.68782526e-01   3.75260418e-01
   3.77106047e-01   3.80337119e-01   3.85142116e-01   3.86353399e-01
   3.89500960e-01   3.91819939e-01   3.98491962e-01   3.99227710e-01
   4.03332346e-01   4.05877483e-01   4.07121577e-01   4.10383238e-01
   4.13146922e-01   4.15322014e-01   4.17311926e-01   4.19412879e-01
   4.23267403e-01   4.26478333e-01   4.30592618e-01   4.31007708e-01
   4.34348293e-01   4.36532335e-01   4.37814784e-01   4.40208948e-01
   4.44476709e-01   4.47145763e-01   4.49812691e-01   4.56102690e-01
   4.58190290e-01   4.63024053e-01   4.65866609e-01   4.68597142e-01
   4.70971252e-01   4.74939143e-01   4.79317216e-01   4.82015823e-01
   4.83433549e-01   4.84670770e-01   4.90015575e-01   4.92646308e-01
   4.96894358e-01   5.02219281e-01   5.06886262e-01   5.10834003e-01
   5.16000323e-01   5.22378320e-01   5.24456098e-01   5.29988662e-01
   5.37167364e-01   5.42277488e-01   5.54883984e-01   5.58669266e-01
   5.65941510e-01   5.67949963e-01   5.74360946e-01   5.80910390e-01
   5.90900507e-01   5.92514109e-01   6.00393538e-01   6.08584859e-01
   6.12633447e-01   6.16086293e-01   6.20652264e-01   6.25718978e-01
   6.28365105e-01   6.34107018e-01   6.35822983e-01   6.37986946e-01
   6.40237859e-01   6.48183399e-01   6.51449328e-01   6.56443805e-01
   6.62426853e-01   6.63469293e-01   6.64670053e-01   6.68272486e-01
   6.72300216e-01   6.75283468e-01   6.76962698e-01   6.82819015e-01
   6.86737974e-01   6.92698054e-01   6.94254525e-01   6.96797908e-01
   7.06491455e-01   7.09098170e-01   7.12240672e-01   7.17177033e-01
   7.21053951e-01   7.22204998e-01   7.29532598e-01   7.32752370e-01
   7.36291514e-01   7.43896160e-01   7.47060456e-01   7.48849809e-01
   7.50557623e-01   7.58173920e-01   7.62548167e-01   7.65373740e-01
   7.68414437e-01   7.73020863e-01   7.80340714e-01   7.81150572e-01
   7.94112037e-01   7.98016089e-01   8.01244802e-01   8.02618736e-01
   8.04167303e-01   8.07814118e-01   8.13826709e-01   8.20123292e-01
   8.20825089e-01   8.28105155e-01   8.31404349e-01   8.37470594e-01
   8.39382156e-01   8.44664844e-01   8.51698926e-01   8.52945445e-01
   8.61056686e-01   8.68132092e-01   8.70516848e-01   8.75512130e-01
   8.82375730e-01   8.84110783e-01   8.86284334e-01   8.91746546e-01
   8.93866081e-01   8.98063268e-01   9.06223159e-01   9.09628412e-01
   9.12488678e-01   9.23261279e-01   9.26692329e-01   9.29018581e-01
   9.33369508e-01   9.35586818e-01   9.41901808e-01   9.48338609e-01
   9.48644014e-01   9.56738701e-01   9.58725026e-01   9.63813600e-01
   9.70727288e-01   9.72028046e-01   9.80686033e-01   9.84413806e-01
   9.87988766e-01   9.92246415e-01   9.93424508e-01   9.95932405e-01
   1.00274261e+00   1.00841632e+00   1.01664461e+00   1.02200410e+00
   1.03197011e+00   1.03736119e+00   1.04257691e+00   1.04464979e+00
   1.05177573e+00   1.06070310e+00   1.06382363e+00   1.06932604e+00
   1.07159494e+00   1.07912854e+00   1.08364225e+00   1.08944656e+00
   1.09934824e+00   1.10383304e+00   1.10539923e+00   1.10887830e+00
   1.11231342e+00   1.11602017e+00   1.11907048e+00   1.12493832e+00
   1.13003446e+00   1.13391213e+00   1.14158582e+00   1.14673729e+00
   1.15898401e+00   1.16480627e+00   1.16759541e+00   1.17482183e+00
   1.17814715e+00   1.18570346e+00   1.19010273e+00   1.19399262e+00
   1.19750965e+00   1.20156124e+00   1.20534692e+00   1.21096718e+00
   1.22143913e+00   1.22388031e+00   1.22765174e+00   1.23031206e+00
   1.23419459e+00   1.23756320e+00   1.24767046e+00   1.25101409e+00
   1.25399578e+00   1.25910032e+00   1.26417020e+00   1.26823852e+00
   1.27542485e+00   1.28198486e+00   1.28878666e+00   1.30226527e+00
   1.31122567e+00   1.31152111e+00   1.31598326e+00   1.32478234e+00
   1.32869315e+00   1.33515348e+00   1.33578761e+00   1.34582241e+00
   1.35560925e+00   1.36600224e+00   1.36825550e+00   1.37503879e+00
   1.38272990e+00   1.39165541e+00   1.39728163e+00   1.40187554e+00
   1.40690244e+00   1.41869364e+00   1.42127736e+00   1.42910448e+00
   1.43062728e+00   1.43589971e+00   1.43696149e+00   1.44378267e+00
   1.44596869e+00   1.45237304e+00   1.45469561e+00   1.46115552e+00
   1.46503651e+00   1.47037647e+00   1.47805808e+00   1.48004985e+00
   1.48929544e+00   1.49055567e+00   1.50158885e+00   1.50530445e+00
   1.50853592e+00   1.52036226e+00   1.52204208e+00   1.52937207e+00
   1.53765562e+00   1.54176846e+00   1.54492935e+00   1.55290658e+00
   1.56497780e+00   1.57395643e+00   1.57948775e+00   1.58484668e+00
   1.58941988e+00   1.60033481e+00   1.60637643e+00   1.61101795e+00
   1.61900928e+00   1.62159199e+00   1.63025565e+00   1.63127714e+00
   1.64368033e+00   1.64932365e+00   1.65676444e+00   1.66543056e+00
   1.66782377e+00   1.67312129e+00   1.67970310e+00   1.68071486e+00
   1.68640904e+00   1.68937830e+00   1.69572940e+00   1.70570376e+00
   1.71117348e+00   1.71779365e+00   1.72100716e+00   1.72319834e+00
   1.72890776e+00   1.73949103e+00   1.74337318e+00   1.74909664e+00
   1.75123185e+00   1.75934002e+00   1.76531229e+00   1.77123969e+00
   1.77707799e+00   1.78551913e+00   1.79065116e+00   1.80289640e+00
   1.81107812e+00   1.81469306e+00   1.82773392e+00   1.82984816e+00
   1.83503560e+00   1.84432492e+00   1.84948240e+00   1.85253369e+00
   1.86787043e+00   1.88310802e+00   1.88582683e+00   1.89250148e+00
   1.90968102e+00   1.91616231e+00   1.92407032e+00   1.92659408e+00
   1.93063402e+00   1.93443395e+00   1.94206507e+00   1.95091860e+00
   1.95683493e+00   1.95981097e+00   1.96707434e+00   1.97553886e+00
   1.97947505e+00   1.98851751e+00   1.99875730e+00   2.00027762e+00
   2.00673793e+00   2.01322072e+00   2.01760034e+00   2.02371406e+00
   2.02528414e+00   2.02812684e+00   2.03028994e+00   2.03460216e+00
   2.04555796e+00   2.05129111e+00   2.05868566e+00   2.06007880e+00
   2.06174752e+00   2.07208914e+00   2.07307948e+00   2.08380094e+00
   2.08477558e+00   2.09010643e+00   2.09066197e+00   2.09712757e+00
   2.10340326e+00   2.11356955e+00   2.11792007e+00   2.12103257e+00
   2.12663087e+00   2.13819432e+00   2.14367086e+00   2.14463410e+00
   2.15331666e+00   2.16304741e+00   2.17239919e+00   2.17309386e+00
   2.17590745e+00   2.18477729e+00   2.19244550e+00   2.19874475e+00
   2.20260863e+00   2.20757238e+00   2.20869076e+00   2.21310544e+00
   2.22062260e+00   2.22803779e+00   2.23093897e+00   2.23706524e+00
   2.24337563e+00   2.25049626e+00   2.25513325e+00   2.26004280e+00
   2.26910501e+00   2.27582184e+00   2.28417048e+00   2.29188123e+00
   2.30346644e+00   2.31097272e+00   2.32086447e+00   2.32721884e+00
   2.33188229e+00   2.33836710e+00   2.34233460e+00   2.36009600e+00
   2.36094890e+00   2.37190549e+00   2.37630490e+00   2.39933194e+00
   2.40828470e+00   2.42121205e+00   2.42667186e+00   2.43613397e+00
   2.43974921e+00   2.45590078e+00   2.46246832e+00   2.46976878e+00
   2.47907555e+00   2.48823787e+00   2.49565320e+00   2.49953947e+00
   2.50217676e+00   2.51071544e+00   2.51201313e+00   2.52157974e+00
   2.52365179e+00   2.53100947e+00   2.54021810e+00   2.54361167e+00
   2.54669039e+00   2.55372200e+00   2.55777473e+00   2.56484401e+00
   2.57541395e+00   2.57766613e+00   2.58299450e+00   2.58871699e+00
   2.59329245e+00   2.60051127e+00   2.60330497e+00   2.61056759e+00
   2.61965722e+00   2.62151655e+00   2.62709179e+00   2.63241614e+00
   2.63467788e+00   2.63740056e+00   2.63943628e+00   2.64569030e+00
   2.64983032e+00   2.65087996e+00   2.65725446e+00   2.66089702e+00
   2.66265152e+00   2.66953225e+00   2.67432564e+00   2.67966859e+00
   2.68521283e+00   2.68797988e+00   2.69548457e+00   2.70111276e+00
   2.70999007e+00   2.71103854e+00   2.71668074e+00   2.72035464e+00
   2.72584595e+00   2.72803978e+00   2.73619468e+00   2.73985126e+00
   2.74652444e+00   2.74970445e+00   2.76276978e+00   2.76651206e+00
   2.77566785e+00   2.77911672e+00   2.78424321e+00   2.78692587e+00
   2.79306088e+00   2.79784513e+00   2.80686123e+00   2.80934628e+00
   2.81381248e+00   2.81769321e+00   2.82330956e+00   2.82403187e+00
   2.82763337e+00   2.83245588e+00   2.83692230e+00   2.84248486e+00
   2.84873544e+00   2.85786175e+00   2.85985972e+00   2.86425479e+00
   2.87011662e+00   2.87126747e+00   2.87290355e+00   2.87604646e+00
   2.88301331e+00   2.88770423e+00   2.89185244e+00   2.89732960e+00
   2.90384801e+00   2.91080037e+00   2.91182875e+00   2.91636981e+00
   2.92103722e+00   2.92809560e+00   2.92917702e+00   2.93417681e+00
   2.94252239e+00   2.94712959e+00   2.95408112e+00   2.95748719e+00
   2.95948106e+00   2.96688682e+00   2.97034593e+00   2.97359517e+00
   2.97675123e+00   2.97947008e+00   2.98515185e+00   2.98824259e+00
   2.99809591e+00   3.00195563e+00   3.00687169e+00   3.01125358e+00
   3.01193961e+00   3.02827476e+00   3.03385503e+00   3.03850749e+00
   3.04235136e+00   3.04582831e+00   3.04901790e+00   3.05097604e+00
   3.05742799e+00   3.06533878e+00   3.06903826e+00   3.07670471e+00
   3.07738013e+00   3.09260315e+00   3.10077822e+00   3.10565404e+00
   3.10755415e+00   3.11663739e+00   3.12004037e+00   3.12125147e+00
   3.12688989e+00   3.13295477e+00   3.13476818e+00   3.13770658e+00
   3.14296707e+00   3.14582034e+00   3.14995539e+00   3.15301400e+00
   3.15674322e+00   3.16038777e+00   3.16583111e+00   3.16823108e+00
   3.17165763e+00   3.17508189e+00   3.18307318e+00   3.18757808e+00
   3.19283426e+00   3.19712790e+00   3.20092566e+00   3.20963048e+00
   3.21431762e+00   3.21690913e+00   3.22119163e+00   3.22493960e+00
   3.22718858e+00   3.23355417e+00   3.24269974e+00   3.24564794e+00
   3.25604564e+00   3.25964146e+00   3.26339565e+00   3.26583549e+00
   3.27214506e+00   3.27741121e+00   3.28117847e+00   3.28481049e+00
   3.28698452e+00   3.30238556e+00   3.30341161e+00   3.30905138e+00
   3.31208861e+00   3.32078206e+00   3.32535847e+00   3.33092173e+00
   3.33459290e+00   3.34061321e+00   3.34828624e+00   3.34914641e+00
   3.35514664e+00   3.35754633e+00   3.36346263e+00   3.36993431e+00
   3.38073811e+00   3.38093160e+00   3.38626915e+00   3.39064332e+00
   3.39638773e+00   3.39988642e+00   3.40263044e+00   3.40477216e+00
   3.41473334e+00   3.42077103e+00   3.42585156e+00   3.42977342e+00
   3.43618122e+00   3.44263039e+00   3.44414418e+00   3.45376141e+00
   3.45524912e+00   3.45869913e+00   3.46297491e+00   3.46716170e+00
   3.46903357e+00   3.47088906e+00   3.47283248e+00   3.47778309e+00
   3.48005236e+00   3.48041431e+00   3.48849675e+00   3.49275525e+00
   3.49417811e+00   3.49725260e+00   3.49887351e+00   3.50701757e+00
   3.51174388e+00   3.51244333e+00   3.51828834e+00   3.52313766e+00
   3.52619122e+00   3.53469229e+00   3.54066368e+00   3.54427407e+00
   3.54629779e+00   3.55330152e+00   3.56640797e+00   3.57709046e+00
   3.58042336e+00   3.59210968e+00   3.59532348e+00   3.60223289e+00
   3.60749262e+00   3.61364337e+00   3.61843171e+00   3.62640945e+00
   3.63463989e+00   3.63765628e+00   3.64493968e+00   3.64795712e+00
   3.66776081e+00   3.67003863e+00   3.67250017e+00   3.67884893e+00
   3.68320416e+00   3.69022514e+00   3.69493224e+00   3.70601336e+00
   3.71434408e+00   3.72149110e+00   3.73557811e+00   3.74206510e+00
   3.74463349e+00   3.75990385e+00   3.76416721e+00   3.77261374e+00
   3.78330329e+00   3.79352958e+00   3.80461705e+00   3.81159183e+00
   3.81901556e+00   3.82494386e+00   3.83708584e+00   3.85432277e+00
   3.86153284e+00   3.86989221e+00   3.87329083e+00   3.87483494e+00
   3.88448387e+00   3.89095042e+00   3.89962054e+00   3.91463236e+00
   3.92264022e+00   3.92946570e+00   3.94003112e+00   3.94828071e+00
   3.95657450e+00   3.95847602e+00   3.96519082e+00   3.98440660e+00
   4.00203114e+00   4.00877543e+00   4.01896910e+00   4.03053146e+00
   4.04360839e+00   4.05156612e+00   4.05528490e+00   4.06388728e+00
   4.06483196e+00   4.07385849e+00   4.08024470e+00   4.08674923e+00
   4.09473435e+00   4.10254195e+00   4.10829623e+00   4.11196639e+00
   4.12023400e+00   4.12157058e+00   4.13536981e+00   4.14178731e+00
   4.14421365e+00   4.15300678e+00   4.15504800e+00   4.16283736e+00
   4.16441088e+00   4.16713233e+00   4.17157163e+00   4.17468373e+00
   4.17704905e+00   4.18157426e+00   4.19277560e+00   4.19756183e+00
   4.20222986e+00   4.20745762e+00   4.21131689e+00   4.22022386e+00
   4.22169504e+00   4.22626318e+00   4.24071510e+00   4.24567159e+00
   4.25327536e+00   4.25631149e+00   4.26141566e+00   4.26840034e+00
   4.27247613e+00   4.27643554e+00   4.27982911e+00   4.29149164e+00
   4.29667920e+00   4.31341625e+00   4.32022478e+00   4.32688320e+00
   4.33982833e+00   4.34671580e+00   4.35636268e+00   4.36043405e+00
   4.36994477e+00   4.37760666e+00   4.39452927e+00   4.40105493e+00
   4.40878794e+00   4.41271929e+00   4.42024635e+00   4.43939849e+00
   4.44893486e+00   4.46330458e+00   4.49304177e+00   4.52661906e+00
   4.53788482e+00   4.54962364e+00   4.56063852e+00   4.56449543e+00
   4.57334777e+00   4.58715711e+00   4.59474688e+00   4.60370712e+00
   4.62425920e+00   4.62833411e+00   4.65075037e+00   4.66933000e+00
   4.68197868e+00   4.71932296e+00   4.73687314e+00   4.74965099e+00
   4.76223994e+00   4.77081868e+00   4.77999309e+00   4.79114238e+00
   4.79748254e+00   4.80381597e+00   4.81075568e+00   4.82042673e+00
   4.82851391e+00   4.84307465e+00   4.84767652e+00   4.86549781e+00
   4.87799805e+00   4.88732513e+00   4.89398126e+00   4.90306472e+00
   4.92209272e+00   4.93888105e+00   4.94467330e+00   4.95525312e+00
   4.97925776e+00   4.99052624e+00   5.01212603e+00   5.01963907e+00
   5.03288698e+00   5.04558511e+00   5.08125681e+00   5.08886694e+00
   5.11804447e+00   5.12632796e+00   5.14596474e+00   5.15496617e+00
   5.16770570e+00   5.18218181e+00   5.19900839e+00   5.22569427e+00
   5.23298091e+00   5.25693077e+00   5.29422687e+00   5.32886354e+00
   5.33929732e+00   5.36300411e+00   5.38740824e+00   5.39787936e+00
   5.40608752e+00   5.41811997e+00   5.43747504e+00   5.45346066e+00
   5.46014878e+00   5.46582172e+00   5.48607014e+00   5.55479714e+00
   5.56901372e+00   5.58040713e+00   5.62032298e+00   5.62194268e+00
   5.70006778e+00   5.70149573e+00   5.70968962e+00   5.74773602e+00
   5.82636186e+00   5.85427901e+00   5.86584231e+00   5.87120026e+00
   6.02522171e+00   6.26491478e+00   6.34416665e+00   6.85597256e+00
   6.85778918e+00   6.86164223e+00   6.86315731e+00   6.86566020e+00
   6.86712705e+00   6.86898895e+00   6.87005698e+00   6.87220074e+00
   6.87276723e+00   6.87395846e+00   6.87663808e+00   6.87800403e+00
   6.87875565e+00   6.87987279e+00   6.88477681e+00   6.89096151e+00
   6.89163218e+00   6.89399936e+00   6.90153986e+00   6.91880035e+00
   6.92031157e+00   6.94233146e+00   6.94326749e+00   6.96042803e+00
   6.96217767e+00   6.97523532e+00   6.97701109e+00   7.00415846e+00
   7.00694993e+00   7.02482982e+00   7.03122512e+00   7.05496143e+00
   7.05690788e+00   7.06722342e+00   7.06992470e+00   7.10884506e+00
   7.11121555e+00   7.14505015e+00   7.14669116e+00   7.16409324e+00
   7.16731805e+00   7.16925626e+00   7.18850692e+00   7.19301514e+00
   7.22643301e+00   7.22868518e+00   7.26149135e+00   7.26266451e+00
   7.27232903e+00   7.27460097e+00   7.27512754e+00   7.27547569e+00
   7.34074973e+00   7.34158004e+00   7.37401350e+00   7.37810559e+00
   7.39464408e+00   7.39688566e+00   7.42340785e+00   7.42586155e+00
   7.47612753e+00   7.47935173e+00   7.57374599e+00   7.57641842e+00
   7.61702339e+00   7.61969679e+00   7.69930602e+00   7.70183084e+00
   7.97441577e+00   7.97859609e+00   8.31714514e+00   8.31949585e+00
   8.34623406e+00   8.34919273e+00   8.38351715e+00   8.38756229e+00
   8.40014758e+00   8.43076574e+00   8.44199995e+00   8.46606368e+00
   8.47483142e+00   8.48039330e+00   8.55008130e+00   8.55140471e+00
   8.58563077e+00   8.59502682e+00   8.60142789e+00   8.60586437e+00
   8.69398878e+00   8.69618331e+00   8.72790468e+00   8.73011210e+00
   8.73592418e+00   8.74397881e+00   8.77084047e+00   8.77430682e+00
   8.80319846e+00   8.80561561e+00   8.81005764e+00   8.81344641e+00
   8.86209299e+00   8.86681170e+00   8.89930653e+00   8.90206091e+00
   8.94425659e+00   8.94963189e+00   8.95750583e+00   8.96024959e+00
   9.04966123e+00   9.05394986e+00   9.05499716e+00   9.05898815e+00
   9.08767645e+00   9.08919609e+00   9.09620712e+00   9.11321356e+00
   9.14179225e+00   9.15133401e+00   9.33501828e+00   9.34560553e+00
   1.57466477e+01   2.22411696e+01   2.23740841e+01   2.24079366e+01
   2.24701621e+01   2.26072553e+01   2.26186007e+01   2.26455074e+01
   2.26750361e+01   2.27880454e+01   2.28634832e+01   2.28930937e+01
   2.29027154e+01   2.29175453e+01   2.29239231e+01   2.29311123e+01
   2.30330521e+01   2.30401046e+01   2.30672799e+01   2.30982684e+01
   2.31721070e+01   2.32529711e+01   2.34912890e+01   2.35834022e+01
   2.36550247e+01   3.25236516e+01   3.30914249e+01   5.72386021e+01
   5.72509601e+01   5.74263566e+01   5.74324457e+01   5.75114790e+01
   5.75219924e+01   5.76582486e+01   5.76771682e+01   5.76907899e+01
   5.77338431e+01]
nelec by numeric integration = 261.999940873
    CPU time for vxc    144.57 sec, wall time      8.18 sec
    CPU time for df vj and vk    743.27 sec, wall time     43.54 sec
E1 = -11347.4922995  Ecoul = 5269.30151237  Exc = -253.976225526
cycle= 3 E= -2051.32563914607  delta_E= -7.49e-10  |g|= 6.22e-06  |ddm|= 7.6e-05
    CPU time for cycle= 3    892.56 sec, wall time     52.90 sec
  HOMO = -0.263834545498254  LUMO = -0.13161036563893
  mo_energy =
[ -2.48140912e+01  -2.48119885e+01  -2.48094912e+01  -2.48094046e+01
  -2.48081733e+01  -2.48080794e+01  -2.48066459e+01  -2.48041825e+01
  -2.48038128e+01  -2.48035072e+01  -1.45105316e+01  -1.44817350e+01
  -1.03490304e+01  -1.03465726e+01  -1.03426109e+01  -1.03423186e+01
  -1.03419977e+01  -1.03412746e+01  -1.03412563e+01  -1.03409988e+01
  -1.03407182e+01  -1.03388899e+01  -1.03015272e+01  -1.02843039e+01
  -1.02653923e+01  -1.02636831e+01  -1.02622439e+01  -1.02612938e+01
[...]
   2.06174757e+00   2.07208922e+00   2.07307959e+00   2.08380100e+00
   2.08477565e+00   2.09010652e+00   2.09066202e+00   2.09712764e+00
   2.10340334e+00   2.11356965e+00   2.11792015e+00   2.12103263e+00
   2.12663091e+00   2.13819440e+00   2.14367097e+00   2.14463422e+00
   2.15331675e+00   2.16304749e+00   2.17239928e+00   2.17309396e+00
   2.17590753e+00   2.18477741e+00   2.19244559e+00   2.19874486e+00
   2.20260869e+00   2.20757245e+00   2.20869088e+00   2.21310554e+00
   2.22062266e+00   2.22803790e+00   2.23093905e+00   2.23706534e+00
   2.24337570e+00   2.25049634e+00   2.25513340e+00   2.26004289e+00
   2.26910507e+00   2.27582194e+00   2.28417055e+00   2.29188131e+00
   2.30346656e+00   2.31097280e+00   2.32086458e+00   2.32721896e+00
   2.33188235e+00   2.33836718e+00   2.34233464e+00   2.36009607e+00
   2.36094900e+00   2.37190558e+00   2.37630501e+00   2.39933207e+00
   2.40828482e+00   2.42121215e+00   2.42667201e+00   2.43613405e+00
   2.43974930e+00   2.45590085e+00   2.46246828e+00   2.46976886e+00
   2.47907561e+00   2.48823794e+00   2.49565328e+00   2.49953950e+00
   2.50217675e+00   2.51071553e+00   2.51201320e+00   2.52157980e+00
   2.52365190e+00   2.53100955e+00   2.54021818e+00   2.54361174e+00
   2.54669047e+00   2.55372211e+00   2.55777481e+00   2.56484403e+00
   2.57541402e+00   2.57766624e+00   2.58299454e+00   2.58871707e+00
   2.59329253e+00   2.60051136e+00   2.60330508e+00   2.61056766e+00
   2.61965728e+00   2.62151664e+00   2.62709186e+00   2.63241613e+00
   2.63467795e+00   2.63740061e+00   2.63943636e+00   2.64569036e+00
   2.64983038e+00   2.65087999e+00   2.65725452e+00   2.66089706e+00
   2.66265161e+00   2.66953233e+00   2.67432568e+00   2.67966867e+00
   2.68521296e+00   2.68797996e+00   2.69548465e+00   2.70111288e+00
   2.70999016e+00   2.71103862e+00   2.71668085e+00   2.72035474e+00
   2.72584599e+00   2.72803986e+00   2.73619481e+00   2.73985134e+00
   2.74652448e+00   2.74970455e+00   2.76276989e+00   2.76651217e+00
   2.77566791e+00   2.77911679e+00   2.78424332e+00   2.78692601e+00
   2.79306094e+00   2.79784519e+00   2.80686133e+00   2.80934635e+00
   2.81381253e+00   2.81769326e+00   2.82330959e+00   2.82403193e+00
   2.82763343e+00   2.83245598e+00   2.83692240e+00   2.84248496e+00
   2.84873547e+00   2.85786181e+00   2.85985977e+00   2.86425484e+00
   2.87011667e+00   2.87126752e+00   2.87290361e+00   2.87604653e+00
   2.88301338e+00   2.88770429e+00   2.89185249e+00   2.89732968e+00
   2.90384811e+00   2.91080042e+00   2.91182889e+00   2.91636989e+00
   2.92103725e+00   2.92809569e+00   2.92917708e+00   2.93417691e+00
   2.94252248e+00   2.94712965e+00   2.95408121e+00   2.95748730e+00
   2.95948112e+00   2.96688688e+00   2.97034598e+00   2.97359522e+00
   2.97675126e+00   2.97947018e+00   2.98515191e+00   2.98824267e+00
   2.99809600e+00   3.00195567e+00   3.00687176e+00   3.01125363e+00
   3.01193971e+00   3.02827484e+00   3.03385508e+00   3.03850752e+00
   3.04235145e+00   3.04582835e+00   3.04901798e+00   3.05097609e+00
   3.05742804e+00   3.06533884e+00   3.06903832e+00   3.07670477e+00
   3.07738018e+00   3.09260323e+00   3.10077830e+00   3.10565408e+00
   3.10755421e+00   3.11663751e+00   3.12004046e+00   3.12125151e+00
   3.12688996e+00   3.13295486e+00   3.13476827e+00   3.13770666e+00
   3.14296715e+00   3.14582039e+00   3.14995550e+00   3.15301407e+00
   3.15674331e+00   3.16038784e+00   3.16583119e+00   3.16823121e+00
   3.17165769e+00   3.17508199e+00   3.18307324e+00   3.18757816e+00
   3.19283431e+00   3.19712796e+00   3.20092574e+00   3.20963053e+00
   3.21431766e+00   3.21690914e+00   3.22119173e+00   3.22493966e+00
   3.22718861e+00   3.23355424e+00   3.24269981e+00   3.24564801e+00
   3.25604570e+00   3.25964151e+00   3.26339574e+00   3.26583554e+00
   3.27214515e+00   3.27741132e+00   3.28117849e+00   3.28481059e+00
   3.28698462e+00   3.30238565e+00   3.30341166e+00   3.30905148e+00
   3.31208869e+00   3.32078209e+00   3.32535853e+00   3.33092183e+00
   3.33459298e+00   3.34061331e+00   3.34828632e+00   3.34914654e+00
   3.35514672e+00   3.35754646e+00   3.36346272e+00   3.36993443e+00
   3.38073823e+00   3.38093171e+00   3.38626928e+00   3.39064338e+00
   3.39638782e+00   3.39988647e+00   3.40263061e+00   3.40477222e+00
   3.41473347e+00   3.42077116e+00   3.42585159e+00   3.42977345e+00
   3.43618128e+00   3.44263046e+00   3.44414424e+00   3.45376145e+00
   3.45524922e+00   3.45869922e+00   3.46297498e+00   3.46716176e+00
   3.46903361e+00   3.47088914e+00   3.47283258e+00   3.47778319e+00
   3.48005239e+00   3.48041438e+00   3.48849679e+00   3.49275535e+00
   3.49417816e+00   3.49725266e+00   3.49887355e+00   3.50701764e+00
   3.51174394e+00   3.51244342e+00   3.51828844e+00   3.52313774e+00
   3.52619135e+00   3.53469236e+00   3.54066375e+00   3.54427414e+00
   3.54629787e+00   3.55330159e+00   3.56640800e+00   3.57709052e+00
   3.58042343e+00   3.59210974e+00   3.59532357e+00   3.60223301e+00
   3.60749268e+00   3.61364344e+00   3.61843180e+00   3.62640954e+00
   3.63463994e+00   3.63765641e+00   3.64493972e+00   3.64795719e+00
   3.66776092e+00   3.67003870e+00   3.67250030e+00   3.67884904e+00
   3.68320425e+00   3.69022527e+00   3.69493233e+00   3.70601347e+00
   3.71434420e+00   3.72149119e+00   3.73557820e+00   3.74206516e+00
   3.74463359e+00   3.75990398e+00   3.76416728e+00   3.77261385e+00
   3.78330342e+00   3.79352963e+00   3.80461717e+00   3.81159189e+00
   3.81901567e+00   3.82494395e+00   3.83708585e+00   3.85432279e+00
   3.86153303e+00   3.86989222e+00   3.87329084e+00   3.87483496e+00
   3.88448393e+00   3.89095054e+00   3.89962062e+00   3.91463243e+00
   3.92264028e+00   3.92946579e+00   3.94003124e+00   3.94828078e+00
   3.95657456e+00   3.95847615e+00   3.96519095e+00   3.98440664e+00
   4.00203127e+00   4.00877548e+00   4.01896924e+00   4.03053159e+00
   4.04360855e+00   4.05156618e+00   4.05528496e+00   4.06388730e+00
   4.06483198e+00   4.07385848e+00   4.08024472e+00   4.08674927e+00
   4.09473441e+00   4.10254204e+00   4.10829629e+00   4.11196654e+00
   4.12023406e+00   4.12157064e+00   4.13536987e+00   4.14178743e+00
   4.14421371e+00   4.15300684e+00   4.15504811e+00   4.16283739e+00
   4.16441099e+00   4.16713242e+00   4.17157175e+00   4.17468382e+00
   4.17704918e+00   4.18157432e+00   4.19277569e+00   4.19756195e+00
   4.20222992e+00   4.20745774e+00   4.21131694e+00   4.22022392e+00
   4.22169514e+00   4.22626327e+00   4.24071517e+00   4.24567167e+00
   4.25327545e+00   4.25631155e+00   4.26141574e+00   4.26840047e+00
   4.27247620e+00   4.27643566e+00   4.27982923e+00   4.29149172e+00
   4.29667927e+00   4.31341640e+00   4.32022489e+00   4.32688337e+00
   4.33982842e+00   4.34671591e+00   4.35636278e+00   4.36043416e+00
   4.36994486e+00   4.37760677e+00   4.39452934e+00   4.40105497e+00
   4.40878804e+00   4.41271938e+00   4.42024645e+00   4.43939858e+00
   4.44893494e+00   4.46330468e+00   4.49304189e+00   4.52661926e+00
   4.53788498e+00   4.54962378e+00   4.56063866e+00   4.56449556e+00
   4.57334789e+00   4.58715723e+00   4.59474701e+00   4.60370731e+00
   4.62425933e+00   4.62833425e+00   4.65075049e+00   4.66933018e+00
   4.68197884e+00   4.71932311e+00   4.73687325e+00   4.74965107e+00
   4.76224002e+00   4.77081876e+00   4.77999317e+00   4.79114246e+00
   4.79748257e+00   4.80381605e+00   4.81075581e+00   4.82042681e+00
   4.82851401e+00   4.84307487e+00   4.84767668e+00   4.86549793e+00
   4.87799814e+00   4.88732521e+00   4.89398144e+00   4.90306482e+00
   4.92209292e+00   4.93888119e+00   4.94467352e+00   4.95525329e+00
   4.97925791e+00   4.99052637e+00   5.01212619e+00   5.01963928e+00
   5.03288719e+00   5.04558551e+00   5.08125703e+00   5.08886716e+00
   5.11804459e+00   5.12632824e+00   5.14596496e+00   5.15496634e+00
   5.16770581e+00   5.18218203e+00   5.19900869e+00   5.22569457e+00
   5.23298110e+00   5.25693130e+00   5.29422699e+00   5.32886361e+00
   5.33929735e+00   5.36300432e+00   5.38740838e+00   5.39787946e+00
   5.40608775e+00   5.41812007e+00   5.43747514e+00   5.45346085e+00
   5.46014884e+00   5.46582172e+00   5.48607044e+00   5.55479720e+00
   5.56901376e+00   5.58040727e+00   5.62032314e+00   5.62194280e+00
   5.70006805e+00   5.70149582e+00   5.70968976e+00   5.74773651e+00
   5.82636225e+00   5.85427933e+00   5.86584244e+00   5.87120035e+00
   6.02522214e+00   6.26491539e+00   6.34416712e+00   6.85597246e+00
   6.85778908e+00   6.86164212e+00   6.86315720e+00   6.86566015e+00
   6.86712697e+00   6.86898888e+00   6.87005689e+00   6.87220065e+00
   6.87276723e+00   6.87395837e+00   6.87663798e+00   6.87800392e+00
   6.87875563e+00   6.87987275e+00   6.88477686e+00   6.89096142e+00
   6.89163231e+00   6.89399932e+00   6.90153998e+00   6.91880026e+00
   6.92031148e+00   6.94233141e+00   6.94326747e+00   6.96042797e+00
   6.96217759e+00   6.97523531e+00   6.97701108e+00   7.00415842e+00
   7.00694990e+00   7.02482977e+00   7.03122505e+00   7.05496135e+00
   7.05690781e+00   7.06722340e+00   7.06992468e+00   7.10884505e+00
   7.11121554e+00   7.14505005e+00   7.14669107e+00   7.16409364e+00
   7.16731803e+00   7.16925632e+00   7.18850684e+00   7.19301514e+00
   7.22643300e+00   7.22868518e+00   7.26149129e+00   7.26266446e+00
   7.27232897e+00   7.27460092e+00   7.27512750e+00   7.27547563e+00
   7.34074970e+00   7.34158001e+00   7.37401349e+00   7.37810558e+00
   7.39464400e+00   7.39688558e+00   7.42340781e+00   7.42586151e+00
   7.47612748e+00   7.47935168e+00   7.57374600e+00   7.57641842e+00
   7.61702331e+00   7.61969671e+00   7.69930599e+00   7.70183081e+00
   7.97441570e+00   7.97859602e+00   8.31714500e+00   8.31949572e+00
   8.34623390e+00   8.34919257e+00   8.38351704e+00   8.38756219e+00
   8.40014757e+00   8.43076566e+00   8.44199990e+00   8.46606373e+00
   8.47483131e+00   8.48039319e+00   8.55008116e+00   8.55140456e+00
   8.58563081e+00   8.59502680e+00   8.60142777e+00   8.60586438e+00
   8.69398864e+00   8.69618320e+00   8.72790459e+00   8.73011202e+00
   8.73592409e+00   8.74397872e+00   8.77084042e+00   8.77430678e+00
   8.80319838e+00   8.80561550e+00   8.81005755e+00   8.81344631e+00
   8.86209288e+00   8.86681163e+00   8.89930642e+00   8.90206081e+00
   8.94425650e+00   8.94963176e+00   8.95750574e+00   8.96024948e+00
   9.04966110e+00   9.05394982e+00   9.05499712e+00   9.05898816e+00
   9.08767634e+00   9.08919600e+00   9.09620710e+00   9.11321352e+00
   9.14179221e+00   9.15133400e+00   9.33501818e+00   9.34560544e+00
   1.57466479e+01   2.22411698e+01   2.23740841e+01   2.24079367e+01
   2.24701621e+01   2.26072557e+01   2.26186009e+01   2.26455075e+01
   2.26750360e+01   2.27880456e+01   2.28634833e+01   2.28930938e+01
   2.29027155e+01   2.29175453e+01   2.29239231e+01   2.29311123e+01
   2.30330523e+01   2.30401045e+01   2.30672799e+01   2.30982687e+01
   2.31721070e+01   2.32529713e+01   2.34912889e+01   2.35834023e+01
   2.36550249e+01   3.25236522e+01   3.30914263e+01   5.72386019e+01
   5.72509599e+01   5.74263563e+01   5.74324455e+01   5.75114789e+01
   5.75219923e+01   5.76582483e+01   5.76771680e+01   5.76907899e+01
   5.77338431e+01]
nelec by numeric integration = 261.999940873
    CPU time for vxc    133.93 sec, wall time      7.25 sec
    CPU time for df vj and vk    749.03 sec, wall time     43.82 sec
E1 = -11347.4922619  Ecoul = 5269.30147561  Exc = -253.976226399
Extra cycle  E= -2051.32563914607  delta_E= 9.09e-12  |g|= 1.13e-06  |ddm|= 2.18e-06
    CPU time for scf_cycle   5836.29 sec, wall time    555.43 sec
    CPU time for SCF   5836.29 sec, wall time    555.44 sec
converged SCF energy = -2051.32563914607
SCF Done after 555.47 seconds
after SCF memory used: 16.76 GB
Converting <class 'pyscf.df.df_jk.density_fit.<locals>.DFHF'> to RHF
Converting <class 'pyscf.df.df_jk.density_fit.<locals>.DFHF'> to RHF
hdiag shape (140170,)
n_occ =  131
n_vir =  1070
max_vir =  284
A_size =  140170
A_reduced_size = 37204
a_x = 0.25
beta = 0.6575
alpha = 1.54
Q-Gamma tensors building time = 0.92
after Q matrix memory used: 16.88 GB
dynpol
|-------- In-house Developed dynpol Starts ---------|
Residual conv = 1e-05

Perturbation wavelength omega (nm) = [800.0]
Initial guess:   sTDDFT
Preconditioner:  sTDDFT
A matrix size =  140170
pqnorm [[ 10.935969    11.53632056  11.54038792]]
sTDDFT_preconditioner conv 0.01
sTDDFT preconditioning Done
after 5 steps; 2.6268 s
final subspace 13
max_norm =  7.79e-03
initial_cost 0.0509s  1.94%
MVcost     2.2540s  85.81%
GScost     0.1380s  5.25%
subgencost 0.1040s  3.96%
subcost    0.0038s  0.15%
initial guess of tensor alpha
800.0 nm
[[ 391.98505178    3.17823837   47.51424655]
 [   3.17823837  398.83497201  -29.46564252]
 [  47.51424655  -29.46564252  544.75462006]]
Iteration 0
    CPU time for df vj and vk   2211.49 sec, wall time    125.10 sec
sigma.shape (3, 3)
maximum residual norm:  5.305e-01
sTDDFT_preconditioner conv 0.01
sTDDFT preconditioning Done
after 4 steps; 2.3786 s
final subspace 12
max_norm =  5.39e-03
initial_cost 0.0530s  2.23%
MVcost     2.0711s  87.07%
GScost     0.1192s  5.01%
subgencost 0.0729s  3.06%
subcost    0.0025s  0.11%
Iteration 1
    CPU time for df vj and vk   2218.16 sec, wall time    125.33 sec
sigma.shape (6, 6)
maximum residual norm:  1.835e-01
sTDDFT_preconditioner conv 0.01
sTDDFT preconditioning Done
after 4 steps; 2.3708 s
final subspace 12
max_norm =  6.23e-03
initial_cost 0.0345s  1.45%
MVcost     2.0717s  87.38%
GScost     0.1188s  5.01%
subgencost 0.0828s  3.49%
subcost    0.0025s  0.11%
Iteration 2
    CPU time for df vj and vk   2219.66 sec, wall time    125.71 sec
sigma.shape (9, 9)
maximum residual norm:  6.223e-02
sTDDFT_preconditioner conv 0.01
sTDDFT preconditioning Done
after 4 steps; 2.3466 s
final subspace 12
max_norm =  6.38e-03
initial_cost 0.0334s  1.42%
MVcost     2.0641s  87.96%
GScost     0.1170s  4.99%
subgencost 0.0700s  2.98%
subcost    0.0025s  0.11%
Iteration 3
    CPU time for df vj and vk   2172.47 sec, wall time    123.07 sec
sigma.shape (12, 12)
maximum residual norm:  1.480e-02
sTDDFT_preconditioner conv 0.01
sTDDFT preconditioning Done
after 4 steps; 2.3692 s
final subspace 12
max_norm =  6.83e-03
initial_cost 0.0355s  1.50%
MVcost     2.0798s  87.79%
GScost     0.1193s  5.03%
subgencost 0.0721s  3.04%
subcost    0.0027s  0.11%
Iteration 4
    CPU time for df vj and vk   2164.28 sec, wall time    122.61 sec
sigma.shape (15, 15)
maximum residual norm:  3.677e-03
sTDDFT_preconditioner conv 0.01
sTDDFT preconditioning Done
after 4 steps; 2.3719 s
final subspace 12
max_norm =  6.14e-03
initial_cost 0.0326s  1.37%
MVcost     2.0829s  87.82%
GScost     0.1193s  5.03%
subgencost 0.0734s  3.09%
subcost    0.0026s  0.11%
Iteration 5
    CPU time for df vj and vk   2187.70 sec, wall time    124.01 sec
sigma.shape (18, 18)
maximum residual norm:  1.192e-03
sTDDFT_preconditioner conv 0.01
sTDDFT preconditioning Done
after 4 steps; 2.3824 s
final subspace 12
max_norm =  4.41e-03
initial_cost 0.0349s  1.47%
MVcost     2.0718s  86.96%
GScost     0.1270s  5.33%
subgencost 0.0781s  3.28%
subcost    0.0025s  0.11%
Iteration 6
    CPU time for df vj and vk   2211.51 sec, wall time    127.39 sec
sigma.shape (21, 21)
maximum residual norm:  2.937e-04
sTDDFT_preconditioner conv 0.01
sTDDFT preconditioning Done
after 4 steps; 2.3705 s
final subspace 12
max_norm =  5.85e-03
initial_cost 0.0327s  1.38%
MVcost     2.0777s  87.65%
GScost     0.1219s  5.14%
subgencost 0.0741s  3.13%
subcost    0.0030s  0.13%
Iteration 7
    CPU time for df vj and vk   2204.54 sec, wall time    125.11 sec
sigma.shape (24, 24)
maximum residual norm:  9.206e-05
sTDDFT_preconditioner conv 0.01
sTDDFT preconditioning Done
after 4 steps; 2.3674 s
final subspace 12
max_norm =  8.16e-03
initial_cost 0.0375s  1.58%
MVcost     2.0776s  87.76%
GScost     0.1174s  4.96%
subgencost 0.0724s  3.06%
subcost    0.0026s  0.11%
Iteration 8
    CPU time for df vj and vk   2217.10 sec, wall time    126.45 sec
sigma.shape (27, 27)
maximum residual norm:  2.609e-05
sTDDFT_preconditioner conv 0.01
sTDDFT preconditioning Done
after 4 steps; 2.3501 s
final subspace 12
max_norm =  5.64e-03
initial_cost 0.0396s  1.68%
MVcost     2.0563s  87.50%
GScost     0.1188s  5.06%
subgencost 0.0720s  3.06%
subcost    0.0026s  0.11%
Iteration 9
    CPU time for df vj and vk   2222.12 sec, wall time    126.63 sec
sigma.shape (30, 30)
maximum residual norm:  8.174e-06
Dynamic polarizability Converged after  10 iterations   1543.3777 seconds
initial_cost 2.7263 0.18 %
Pcost 21.4429 1.39 %
MVcost 1511.6716 97.95 %
GScost 4.2346 0.27 %
subcost 0.0131 0.0 %
subgencost 2.2843 0.15 %
Wavelength we look at [800.0]
Total Dynamic polarizability memory used: 17.40 GB
Dynamic polarizability tensor alpha
800.0 nm
[[ 299.20714487    8.25670541   41.66746724]
 [   8.25670541  322.32513703  -29.27957061]
 [  41.66746724  -29.27957061  433.74617666]]

Perturbation wavelength omega (nm) = [800.0]
Initial guess:   Adiag
Preconditioner:  Adiag
A matrix size =  140170
pqnorm [[ 10.935969    11.53632056  11.54038792]]
initial guess of tensor alpha
800.0 nm
[[ 440.35230537   23.07338307   48.67578218]
 [  23.07338307  554.35414558  -54.58617564]
 [  48.67578218  -54.58617564  696.69735466]]
Iteration 0
    CPU time for df vj and vk   2216.27 sec, wall time    125.31 sec
sigma.shape (3, 3)
maximum residual norm:  6.312e-01
Iteration 1
    CPU time for df vj and vk   2196.11 sec, wall time    124.12 sec
sigma.shape (6, 6)
maximum residual norm:  2.169e-01
Iteration 2
    CPU time for df vj and vk   2241.50 sec, wall time    127.26 sec
sigma.shape (9, 9)
maximum residual norm:  1.167e-01
Iteration 3
    CPU time for df vj and vk   2253.31 sec, wall time    127.11 sec
sigma.shape (12, 12)
maximum residual norm:  4.963e-02
Iteration 4
    CPU time for df vj and vk   2278.30 sec, wall time    128.57 sec
sigma.shape (15, 15)
maximum residual norm:  2.179e-02
Iteration 5
    CPU time for df vj and vk   2311.24 sec, wall time    130.30 sec
sigma.shape (18, 18)
maximum residual norm:  8.759e-03
Iteration 6
    CPU time for df vj and vk   2325.62 sec, wall time    130.45 sec
sigma.shape (21, 21)
maximum residual norm:  3.210e-03
Iteration 7
    CPU time for df vj and vk   2325.53 sec, wall time    130.81 sec
sigma.shape (24, 24)
maximum residual norm:  1.203e-03
Iteration 8
    CPU time for df vj and vk   2303.50 sec, wall time    130.32 sec
sigma.shape (27, 27)
maximum residual norm:  3.544e-04
Iteration 9
    CPU time for df vj and vk   2306.71 sec, wall time    129.44 sec
sigma.shape (30, 30)
maximum residual norm:  1.620e-04
Iteration 10
    CPU time for df vj and vk   2227.01 sec, wall time    125.61 sec
sigma.shape (33, 33)
maximum residual norm:  6.314e-05
Iteration 11
    CPU time for df vj and vk   2289.31 sec, wall time    129.53 sec
sigma.shape (36, 36)
maximum residual norm:  2.478e-05
Iteration 12
    CPU time for df vj and vk   1488.25 sec, wall time     84.60 sec
sigma.shape (38, 38)
maximum residual norm:  8.665e-06
Dynamic polarizability Converged after  13 iterations   1983.1021 seconds
initial_cost 0.1088 0.01 %
Pcost 0.1947 0.01 %
MVcost 1968.9424 99.29 %
GScost 7.7249 0.39 %
subcost 0.0704 0.0 %
subgencost 4.3386 0.22 %
Wavelength we look at [800.0]
Total Dynamic polarizability memory used: 17.31 GB
Dynamic polarizability tensor alpha
800.0 nm
[[ 299.20714487    8.25670541   41.66746723]
 [   8.25670541  322.32513702  -29.27957061]
 [  41.66746723  -29.27957061  433.74617666]]
TDA = False
max = 30
grid_level = 3
precond_TOL = 0.01
xyzfile = 46_Azobenzene_3a.xyz
memory = 70000
extrainitial = 8
beta = []
stapol = False
eigensolver_tol = 1e-05
conv_tolerance = 1e-05
initial_TOL = 0.01
TDDFT = False
verbose = 5
dynpol_omega = [800.0]
sTDA = False
truncate_virtual = 40.0
dynpol = True
density_fit = True
sTDDFT = False
basis_set = def2-tzvp
nstates = 4
pytd = False
ip_options = [0, 1]
checkfile = True
method = RKS
Truncate_test = False
alpha = []
functional = pbe0
|-------- In-house Developed dynpol Ends ----------|
