curpath /scratch/pbsjobs/job.16274848.hpc
lib.num_threads() =  20
at beginning memory used: 0.05 GB
mol.max_memory 160000


System: uname_result(system='Linux', node='compt320', release='3.10.0-1127.el7.x86_64', version='#1 SMP Tue Feb 18 16:39:12 EST 2020', machine='x86_64', processor='x86_64')  Threads 20
Python 3.7.0 (default, Aug 23 2018, 14:24:33) 
[GCC 6.3.0]
numpy 1.18.1  scipy 1.4.1
Date: Tue Sep  7 11:50:15 2021
PySCF version 1.7.4
PySCF path  /home/zzz6/.local/lib/python3.7/site-packages/pyscf

[CONFIG] conf_file None
[INPUT] verbose = 5
[INPUT] max_memory = 160000 
[INPUT] num. atoms = 83
[INPUT] num. electrons = 314
[INPUT] charge = 0
[INPUT] spin (= nelec alpha-beta = 2S) = 0
[INPUT] symmetry False subgroup None
[INPUT] Mole.unit = angstrom
[INPUT]  1 O     -4.902982297871  -2.855278903159  -1.086968075212 AA   -9.265293736566  -5.395695136220  -2.054071968297 Bohr
[INPUT]  2 O     -3.688663386284  -1.477121544840  -2.418415966091 AA   -6.970563565787  -2.791355172442  -4.570143831187 Bohr
[INPUT]  3 O     -1.394176334558   4.761588697686   1.704485719201 AA   -2.634611441664   8.998098556450   3.221011192522 Bohr
[INPUT]  4 O     -8.178807348645   0.263641637218  -0.215428946742 AA  -15.455705914520   0.498210489374  -0.407101708646 Bohr
[INPUT]  5 O     -7.079585965842  -1.285438625874  -1.412974604011 AA  -13.378478550756  -2.429126952838  -2.670135022547 Bohr
[INPUT]  6 O      3.888205431183  -1.459766783793   2.943114831397 AA    7.347643380983  -2.758559427107   5.561680984485 Bohr
[INPUT]  7 N     -1.927747504618  -0.917666646182  -0.396980720132 AA   -3.642914821042  -1.734138634932  -0.750184837782 Bohr
[INPUT]  8 N      0.293232189221   1.316192072677  -0.916548089970 AA    0.554128528535   2.487242544684  -1.732024870036 Bohr
[INPUT]  9 N      3.298055179808  -0.302921998661  -1.876403768234 AA    6.232421033541  -0.572439614575  -3.545889221063 Bohr
[INPUT] 10 N      4.084716837660  -2.953633626964   1.159431702686 AA    7.718996119577  -5.581558627267   2.191008378215 Bohr
[INPUT] 11 C     -3.637515483235  -0.451871354593   1.215919215302 AA   -6.873908037180  -0.853913103717   2.297754306516 Bohr
[INPUT] 12 C     -3.381953778562  -1.981464812013   1.140446778871 AA   -6.390966407421  -3.744425820168   2.155132071710 Bohr
[INPUT] 13 C     -2.766420098079  -2.119454707542  -0.272293356155 AA   -5.227776330861  -4.005188930674  -0.514559868671 Bohr
[INPUT] 14 C     -2.410500312210   0.080194483233   0.498300044770 AA   -4.555185413256   0.151545610011   0.941650612473 Bohr
[INPUT] 15 C     -4.899425631273   0.035553986968   0.441486510476 AA   -9.258572610781   0.067187298006   0.834288592490 Bohr
[INPUT] 16 C     -1.827549944049   1.300954659768   0.627898307335 AA   -3.453568873217   2.458448007438   1.186555834940 Bohr
[INPUT] 17 C     -2.419208660630  -2.451388525113   2.238458604103 AA   -4.571641806766  -4.632452937365   4.230073702930 Bohr
[INPUT] 18 C     -0.649931124786   1.790519358733  -0.048238633441 AA   -1.228191825676   3.383591208736  -0.091157805826 Bohr
[INPUT] 19 C     -2.292648487686   2.466118054298   1.497135651530 AA   -4.332477741625   4.660287713468   2.829176352714 Bohr
[INPUT] 20 C     -0.331243813584   3.121124005606   0.250945437449 AA   -0.625960088130   5.898069571401   0.474218148989 Bohr
[INPUT] 21 C     -6.228430267156  -0.683555323746   0.789920655216 AA  -11.770027390877  -1.291732352867   1.492733698494 Bohr
[INPUT] 22 C     -3.820639700954  -2.123031974928  -1.392452232982 AA   -7.219962655444  -4.011948986308  -2.631353361875 Bohr
[INPUT] 23 C     -1.309502418463   3.648407541276   1.200334557011 AA   -2.474600930351   6.894491043809   2.268303570602 Bohr
[INPUT] 24 C      0.865694011106   3.472427679177  -0.460975099612 AA    1.635924588666   6.561937301004  -0.871116688510 Bohr
[INPUT] 25 C      1.233248279023   2.327805446548  -1.170681190211 AA    2.330501490944   4.398914765246  -2.212266828678 Bohr
[INPUT] 26 C      2.412431399030   2.057998063630  -2.066955948286 AA    4.558834638467   3.889052705147  -3.905980653801 Bohr
[INPUT] 27 C      3.369864412638   1.029728586476  -1.519880226805 AA    6.368120816803   1.945905011075  -2.872157370804 Bohr
[INPUT] 28 C      1.561673518386   4.801328571107  -0.425946903229 AA    2.951135245736   9.073196033442  -0.804922990710 Bohr
[INPUT] 29 C     -7.182527400278  -0.627189478083  -0.382657927909 AA  -13.573009668709  -1.185216341785  -0.723118683141 Bohr
[INPUT] 30 C      4.403303080261   1.156909629162  -0.593595216588 AA    8.321036865147   2.186242349989  -1.121732388203 Bohr
[INPUT] 31 C      4.271526643254  -1.037607080481  -1.220428512266 AA    8.072015489532  -1.960793207019  -2.306275642793 Bohr
[INPUT] 32 C      4.983942789066  -0.147762226696  -0.412060317861 AA    9.418286891835  -0.279230140011  -0.778681147559 Bohr
[INPUT] 33 C      4.263884523999  -2.529354376014  -1.289041857654 AA    8.057573977130  -4.779787042636  -2.435936074067 Bohr
[INPUT] 34 C      3.431546615863  -3.171705813469  -0.117670625560 AA    6.484683287659  -5.993655335148  -0.222365255214 Bohr
[INPUT] 35 C      4.855430358009   2.436802807264   0.060682231908 AA    9.175433593537   4.604889925300   0.114672798934 Bohr
[INPUT] 36 C      2.103109926067  -2.457726470358   0.082678694391 AA    3.974301770121  -4.644429918071   0.156240088736 Bohr
[INPUT] 37 C      6.133753808450  -0.472680704112   0.500211346707 AA   11.591114813478  -0.893237075137   0.945262449675 Bohr
[INPUT] 38 C      2.157433487014  -1.712023382578   1.227387690157 AA    4.076958422422  -3.235255311924   2.319426583060 Bohr
[INPUT] 39 C      5.941010267091   3.183558088237  -0.738213886245 AA   11.226882308030   6.016052888412  -1.395022066353 Bohr
[INPUT] 40 C      3.459114805336  -1.976339167643   1.916286659205 AA    6.536779615514  -3.734739756096   3.621256962055 Bohr
[INPUT] 41 C      1.001016529814  -2.498728901799  -0.859019331872 AA    1.891647087511  -4.721913283936  -1.623311272946 Bohr
[INPUT] 42 C      1.190196489593  -0.732041299911   1.797807004821 AA    2.249145399750  -1.383357568701   3.397362863935 Bohr
[INPUT] 43 C      0.940519842815  -3.213706286863  -2.008850316649 AA    1.777324917639  -6.073024726964  -3.796176923712 Bohr
[INPUT] 44 H     -3.690562312223  -0.107400889367   2.262799604233 AA   -6.974152015743  -0.202958266439   4.276071526774 Bohr
[INPUT] 45 H     -4.309434991280  -2.569827911259   1.195947181325 AA   -8.143651885136  -4.856270939542   2.260012632149 Bohr
[INPUT] 46 H     -2.158196821500  -3.040623509558  -0.361666538954 AA   -4.078400915543  -5.745945680978  -0.683450707042 Bohr
[INPUT] 47 H     -1.878153034178  -0.607120166256  -1.375630517566 AA   -3.549194854618  -1.147290838925  -2.599564926794 Bohr
[INPUT] 48 H     -5.014305056207   1.118325568711   0.618136545998 AA   -9.475663261254   2.113329042962   1.168108779520 Bohr
[INPUT] 49 H     -4.707347144056  -0.065775424093  -0.639245964977 AA   -8.895596875520  -0.124297537263  -1.207999800041 Bohr
[INPUT] 50 H     -1.478778213517  -1.875932551427   2.218637177201 AA   -2.794485822521  -3.544998750354   4.192616634688 Bohr
[INPUT] 51 H     -2.171214598191  -3.519424776633   2.112795385362 AA   -4.103000948239  -6.650748943845   3.992604635580 Bohr
[INPUT] 52 H     -2.877366757617  -2.320935823719   3.233912305331 AA   -5.437435131824  -4.385933059520   6.111208567936 Bohr
[INPUT] 53 H     -2.249828769155   2.231876620312   2.577324856684 AA   -4.251560200870   4.217635556210   4.870438113167 Bohr
[INPUT] 54 H     -3.326150070280   2.791706230226   1.279141888325 AA   -6.285512682031   5.275560195369   2.417227843393 Bohr
[INPUT] 55 H     -6.037892807527  -1.752664898744   0.974234167276 AA  -11.409963775707  -3.312056646764   1.841035757345 Bohr
[INPUT] 56 H     -6.699554195995  -0.245337843227   1.683136693866 AA  -12.660322587110  -0.463621331690   3.180667381613 Bohr
[INPUT] 57 H      0.395956750464   0.347838424334  -1.211393834136 AA    0.748249815550   0.657319357591  -2.289202575504 Bohr
[INPUT] 58 H      2.060051899665   1.734635308753  -3.067243220909 AA    3.892933892757   3.277985659543  -5.796249644946 Bohr
[INPUT] 59 H      2.943731877629   3.009806312539  -2.223974614419 AA    5.562847032871   5.687709618687  -4.202702929237 Bohr
[INPUT] 60 H      1.938930307266   5.020218725404   0.589283724215 AA    3.664047255352   9.486838476427   1.113584848429 Bohr
[INPUT] 61 H      2.415371504628   4.838935139578  -1.122944829466 AA    4.564390632825   9.144262148337  -2.122058180687 Bohr
[INPUT] 62 H      0.864496310212   5.616638790161  -0.686975632522 AA    1.633661261999  10.613909054012  -1.298195799716 Bohr
[INPUT] 63 H      2.625110483613  -0.706360927459  -2.523612542915 AA    4.960739860754  -1.334828697992  -4.768936550626 Bohr
[INPUT] 64 H     -5.683868379980  -2.500152084464  -1.596333115491 AA  -10.740954566237  -4.724602709397  -3.016632391852 Bohr
[INPUT] 65 H      5.289936623073  -2.935435542287  -1.236367808936 AA    9.996531433914  -5.547169231237  -2.336396548118 Bohr
[INPUT] 66 H      3.838896433940  -2.867910151077  -2.251297696973 AA    7.254462880716  -5.419564735395  -4.254336072144 Bohr
[INPUT] 67 H      3.299446562746  -4.251981515339  -0.320705002534 AA    6.235050366228  -8.035080550704  -0.606044621567 Bohr
[INPUT] 68 H      5.237123757319   2.210868021225   1.073000621650 AA    9.896729581787   4.177935057674   2.027677306407 Bohr
[INPUT] 69 H      3.985949175379   3.102605599854   0.208013038627 AA    7.532352287902   5.863074856265   0.393087673344 Bohr
[INPUT] 70 H      6.943808782748   0.272058331705   0.403568527159 AA   13.121896860742   0.514115736829   0.762633988825 Bohr
[INPUT] 71 H      6.568263185596  -1.459628751089   0.263964560533 AA   12.412218534840  -2.758298583099   0.498820725999 Bohr
[INPUT] 72 H      5.818917310107  -0.487394815866   1.561209095976 AA   10.996160057593  -0.921042716520   2.950257614575 Bohr
[INPUT] 73 H      5.066872626686  -3.169690502701   1.314180716775 AA    9.575001572492  -5.989846949740   2.483441632889 Bohr
[INPUT] 74 H     -8.714524288742   0.240506810893  -1.038375458002 AA  -16.468064211593   0.454492003680  -1.962245230094 Bohr
[INPUT] 75 H      6.834469541979   2.550117258739  -0.879136404113 AA   12.915275641021   4.819023204544  -1.661327029908 Bohr
[INPUT] 76 H      6.253514018908   4.109187946848  -0.222068023485 AA   11.817428811865   7.765239813906  -0.419647745410 Bohr
[INPUT] 77 H      5.571561311505   3.458296544858  -1.742524380342 AA   10.528724964967   6.535233327311  -3.292893844224 Bohr
[INPUT] 78 H      0.129260211218  -1.887965781744  -0.580046793530 AA    0.244266398005  -3.567738260046  -1.096129579204 Bohr
[INPUT] 79 H      1.019817126584  -0.942611864276   2.868135994037 AA    1.927175066384  -1.781278265248   5.419991516737 Bohr
[INPUT] 80 H      0.227223772571  -0.726967535691   1.265986673450 AA    0.429390699150  -1.373769543907   2.392368090170 Bohr
[INPUT] 81 H      1.622401494289   0.284274694284   1.744750768946 AA    3.065894488291   0.537201316341   3.297101108932 Bohr
[INPUT] 82 H      0.050072474565  -3.177440294193  -2.646594914243 AA    0.094623263308  -6.004491933183  -5.001339550587 Bohr
[INPUT] 83 H      1.752443431435  -3.872406121505  -2.338872122073 AA    3.311638134205  -7.317787012733  -4.419827751098 Bohr
[INPUT] ---------------- BASIS SET ---------------- 
[INPUT] l, kappa, [nprim/nctr], expnt,             c_1 c_2 ...
[INPUT] N
[INPUT] 0    0    [6    /1   ]  19730.800647      0.00021887984991
                                2957.8958745      0.0016960708803
                                673.22133595      0.0087954603538
                                190.68249494      0.035359382605
                                62.295441898      0.11095789217
                                22.654161182      0.24982972552
[INPUT] 0    0    [2    /1   ]  8.9791477428      0.40623896148
                                3.686300237       0.24338217176
[INPUT] 0    0    [1    /1   ]  0.84660076805        1
[INPUT] 0    0    [1    /1   ]  0.33647133771        1
[INPUT] 0    0    [1    /1   ]  0.13647653675        1
[INPUT] 1    0    [4    /1   ]  49.20038051       0.0055552416751
                                11.346790537      0.038052379723
                                3.4273972411      0.14953671029
                                1.1785525134      0.3494930523
[INPUT] 1    0    [1    /1   ]  0.41642204972        1
[INPUT] 1    0    [1    /1   ]  0.14260826011        1
[INPUT] 2    0    [1    /1   ]  1.654                1
[INPUT] 2    0    [1    /1   ]  0.469                1
[INPUT] 3    0    [1    /1   ]  1.093                1
[INPUT] H
[INPUT] 0    0    [3    /1   ]  34.061341         0.0060251978
                                5.1235746         0.045021094
                                1.1646626         0.20189726
[INPUT] 0    0    [1    /1   ]  0.32723041           1
[INPUT] 0    0    [1    /1   ]  0.10307241           1
[INPUT] 1    0    [1    /1   ]  0.8                  1
[INPUT] C
[INPUT] 0    0    [6    /1   ]  13575.349682      0.00022245814352
                                2035.233368       0.0017232738252
                                463.22562359      0.0089255715314
                                131.20019598      0.035727984502
                                42.853015891      0.11076259931
                                15.584185766      0.24295627626
[INPUT] 0    0    [2    /1   ]  6.2067138508      0.41440263448
                                2.5764896527      0.23744968655
[INPUT] 0    0    [1    /1   ]  0.57696339419        1
[INPUT] 0    0    [1    /1   ]  0.22972831358        1
[INPUT] 0    0    [1    /1   ]  0.095164440028       1
[INPUT] 1    0    [4    /1   ]  34.697232244      0.0053333657805
                                7.9582622826      0.035864109092
                                2.3780826883      0.14215873329
                                0.81433208183     0.34270471845
[INPUT] 1    0    [1    /1   ]  0.28887547253        1
[INPUT] 1    0    [1    /1   ]  0.10056823671        1
[INPUT] 2    0    [1    /1   ]  1.097                1
[INPUT] 2    0    [1    /1   ]  0.318                1
[INPUT] 3    0    [1    /1   ]  0.761                1
[INPUT] O
[INPUT] 0    0    [6    /1   ]  27032.382631      0.00021726302465
                                4052.3871392      0.0016838662199
                                922.3272271       0.0087395616265
                                261.24070989      0.035239968808
                                85.354641351      0.11153519115
                                31.035035245      0.25588953961
[INPUT] 0    0    [2    /1   ]  12.260860728      0.39768730901
                                4.9987076005      0.2462784943
[INPUT] 0    0    [1    /1   ]  1.1703108158         1
[INPUT] 0    0    [1    /1   ]  0.46474740994        1
[INPUT] 0    0    [1    /1   ]  0.18504536357        1
[INPUT] 1    0    [4    /1   ]  63.274954801      0.0060685103418
                                14.627049379      0.041912575824
                                4.4501223456      0.16153841088
                                1.5275799647      0.35706951311
[INPUT] 1    0    [1    /1   ]  0.52935117943        1
[INPUT] 1    0    [1    /1   ]  0.1747842127         1
[INPUT] 2    0    [1    /1   ]  2.314                1
[INPUT] 2    0    [1    /1   ]  0.645                1
[INPUT] 3    0    [1    /1   ]  1.428                1

nuclear repulsion = 5462.08638299416
number of shells = 633
number of NR pGTOs = 2298
number of NR cGTOs = 1573
basis = def2-tzvp
ecp = {}
CPU time:         4.12
RKS
Density fitting turned on
Molecule built
Calculating SCF Energy...


******** <class 'pyscf.df.df_jk.density_fit.<locals>.DFHF'> ********
method = DFHF-RKS-RHF
initial guess = chkfile
damping factor = 0
level_shift factor = 0
DIIS = <class 'pyscf.scf.diis.CDIIS'>
diis_start_cycle = 1
diis_space = 8
SCF conv_tol = 1e-10
SCF conv_tol_grad = None
SCF max_cycles = 50
direct_scf = True
direct_scf_tol = 1e-13
chkfile to save SCF result = 83_Dinoflagellate_luciferin_wb97x.chk
max_memory 160000 MB (current use 56 MB)
XC functionals = wb97x
small_rho_cutoff = 1e-07
radial grids: 
    Treutler-Ahlrichs [JCP 102, 346 (1995); DOI:10.1063/1.469408] (M4) radial grids
    
becke partition: Becke, JCP 88, 2547 (1988); DOI:10.1063/1.454033
pruning grids: <function nwchem_prune at 0x7f17d5b0fe18>
grids dens level: 3
symmetrized grids: False
atomic radii adjust function: <function treutler_atomic_radii_adjust at 0x7f17d5b0fd90>
Set gradient conv threshold to 1e-05
atom O rad-grids = 75, ang-grids = [ 50  50  50  50  50  50  50  50  50  50  50  50  50  50  50  50  50  50
  50  50  50  50  86  86  86  86  86  86  86  86  86 266 266 266 266 266
 266 266 302 302 302 302 302 302 302 302 302 302 302 302 302 302 302 302
 302 302 302 266 266 266 266 266 266 266 266 266 266 266 266 266 266 266
 266 266 266]
atom N rad-grids = 75, ang-grids = [ 50  50  50  50  50  50  50  50  50  50  50  50  50  50  50  50  50  50
  50  50  50  50  50  86  86  86  86  86  86  86  86  86 266 266 266 266
 266 266 266 302 302 302 302 302 302 302 302 302 302 302 302 302 302 302
 302 302 302 302 266 266 266 266 266 266 266 266 266 266 266 266 266 266
 266 266 266]
atom C rad-grids = 75, ang-grids = [ 50  50  50  50  50  50  50  50  50  50  50  50  50  50  50  50  50  50
  50  50  50  50  50  86  86  86  86  86  86  86  86  86  86 266 266 266
 266 266 266 266 302 302 302 302 302 302 302 302 302 302 302 302 302 302
 302 302 302 302 302 302 266 266 266 266 266 266 266 266 266 266 266 266
 266 266 266]
atom H rad-grids = 50, ang-grids = [ 50  50  50  50  50  50  50  50  50  50  50  50  50  50  86  86  86  86
 266 266 266 266 302 302 302 302 302 302 302 302 302 302 302 302 302 266
 266 266 266 266 266 266 266 266 266 266 266 266 266 266]
tot grids = 1001482
Drop grids 206421
    CPU time for setting up grids    356.56 sec, wall time     19.46 sec
nelec by numeric integration = 314.000711791465
    CPU time for vxc    535.06 sec, wall time     27.26 sec
******** <class 'pyscf.df.df.DF'> ********
auxbasis = None
max_memory = 160000
_cderi_to_save = /tmp/job.16274848.hpc/tmptakigwgx
Default auxbasis def2-tzvp-jkfit is used for N def2-tzvp
Default auxbasis def2-tzvp-jkfit is used for H def2-tzvp
Default auxbasis def2-tzvp-jkfit is used for C def2-tzvp
Default auxbasis def2-tzvp-jkfit is used for O def2-tzvp
num shells = 1315, num cGTOs = 3965
size of aux basis 3965
int3c2e [1/2], AO [0:628], nrow = 1223830
int3c2e [2/2], AO [628:633], nrow = 14121
    CPU time for cholesky_eri   1032.29 sec, wall time    135.87 sec
    CPU time for df vj and vk   3596.33 sec, wall time    304.76 sec
Create RSH-DF object <pyscf.df.df.DF object at 0x7f17d0abb1d0> for omega=0.3
******** <class 'pyscf.df.df.DF'> ********
auxbasis = None
max_memory = 160000
_cderi_to_save = /tmp/job.16274848.hpc/tmpd3olf4j3
Default auxbasis def2-tzvp-jkfit is used for N def2-tzvp
Default auxbasis def2-tzvp-jkfit is used for H def2-tzvp
Default auxbasis def2-tzvp-jkfit is used for C def2-tzvp
Default auxbasis def2-tzvp-jkfit is used for O def2-tzvp
num shells = 1315, num cGTOs = 3965
size of aux basis 3008
int3c2e [1/2], AO [0:483], nrow = 907878
int3c2e [2/2], AO [483:633], nrow = 330073
    CPU time for cholesky_eri   1516.48 sec, wall time    111.49 sec
    CPU time for df vj and vk   3593.51 sec, wall time    218.34 sec
E1 = -13530.130007870337  Ecoul = 6388.869329348524  Exc = -273.0687930473421
init E= -1952.24308857499
cond(S) = 2187271.6025805757
    CPU time for initialize scf   8103.37 sec, wall time    571.11 sec
  HOMO = -0.272585817927159  LUMO = 0.00668773970426388
  mo_energy =
[-1.92787489e+01 -1.92505050e+01 -1.92205130e+01 -1.92022709e+01
 -1.91601575e+01 -1.91575154e+01 -1.44513904e+01 -1.44344880e+01
 -1.44223685e+01 -1.44159502e+01 -1.04311412e+01 -1.04101271e+01
 -1.03571022e+01 -1.03379409e+01 -1.03269209e+01 -1.03205924e+01
 -1.03125976e+01 -1.03015949e+01 -1.03009269e+01 -1.02974474e+01
 -1.02970010e+01 -1.02939673e+01 -1.02936052e+01 -1.02889060e+01
 -1.02873671e+01 -1.02853111e+01 -1.02845090e+01 -1.02832004e+01
 -1.02817986e+01 -1.02817031e+01 -1.02784604e+01 -1.02780824e+01
 -1.02708494e+01 -1.02672211e+01 -1.02649079e+01 -1.02573239e+01
 -1.02516364e+01 -1.02510303e+01 -1.02468341e+01 -1.02466103e+01
 -1.02455446e+01 -1.02429107e+01 -1.02407841e+01 -1.26947621e+00
 -1.24609427e+00 -1.17372533e+00 -1.15784564e+00 -1.15709135e+00
 -1.14126705e+00 -1.11803549e+00 -1.10317199e+00 -1.09644856e+00
 -1.07546202e+00 -9.76523293e-01 -9.71704033e-01 -9.63244602e-01
 -9.38206467e-01 -9.34940538e-01 -9.28544132e-01 -9.25155277e-01
 -9.11370639e-01 -9.03917352e-01 -8.88223840e-01 -8.75046551e-01
 -8.56315574e-01 -8.43929917e-01 -8.35942887e-01 -8.27165638e-01
 -8.17365830e-01 -8.09899561e-01 -7.96903323e-01 -7.86716296e-01
 -7.67493998e-01 -7.57819092e-01 -7.55115259e-01 -7.40521854e-01
 -7.38318250e-01 -7.22570772e-01 -7.11749429e-01 -6.98099547e-01
 -6.82444673e-01 -6.76245338e-01 -6.68314221e-01 -6.63945607e-01
 -6.58670440e-01 -6.53370492e-01 -6.49338832e-01 -6.47422533e-01
 -6.36049333e-01 -6.30114078e-01 -6.25567928e-01 -6.13998327e-01
 -6.13210935e-01 -6.04913602e-01 -5.98393110e-01 -5.89343732e-01
 -5.84981976e-01 -5.80415834e-01 -5.76858747e-01 -5.71610879e-01
 -5.66122218e-01 -5.62667148e-01 -5.58030800e-01 -5.56537802e-01
 -5.52771038e-01 -5.48519697e-01 -5.46643044e-01 -5.43479335e-01
 -5.36701067e-01 -5.36276907e-01 -5.30888019e-01 -5.29870584e-01
 -5.27657116e-01 -5.25773487e-01 -5.21052172e-01 -5.20370227e-01
 -5.16837345e-01 -5.14994053e-01 -5.11760609e-01 -5.10692611e-01
 -5.04389134e-01 -5.02917119e-01 -4.97784038e-01 -4.97419701e-01
 -4.94707723e-01 -4.90620080e-01 -4.88668684e-01 -4.81497023e-01
 -4.80880064e-01 -4.77657395e-01 -4.74613984e-01 -4.70115373e-01
 -4.68256798e-01 -4.67268257e-01 -4.64624866e-01 -4.61924771e-01
 -4.59824432e-01 -4.58102548e-01 -4.54269512e-01 -4.49252452e-01
 -4.42796338e-01 -4.36850169e-01 -4.34939144e-01 -4.33896576e-01
 -4.21892894e-01 -4.21463479e-01 -4.19010958e-01 -3.98320622e-01
 -3.62612660e-01 -3.58730547e-01 -3.56079575e-01 -3.40740625e-01
 -3.38245966e-01 -3.32790681e-01 -3.21064767e-01 -2.89393225e-01
 -2.72585818e-01  6.68773970e-03  3.19663916e-02  5.88117518e-02
  6.73694474e-02  7.55168044e-02  8.36626767e-02  9.11807787e-02
  9.53324540e-02  1.02295361e-01  1.05327597e-01  1.09426337e-01
  1.15200565e-01  1.17589487e-01  1.21490207e-01  1.23151104e-01
  1.29784186e-01  1.34933312e-01  1.37455900e-01  1.41757832e-01
  1.44674572e-01  1.48141261e-01  1.50384385e-01  1.55093852e-01
  1.59839741e-01  1.60438820e-01  1.65272351e-01  1.66191844e-01
  1.70376453e-01  1.71072195e-01  1.75153328e-01  1.78468771e-01
  1.81193363e-01  1.83333582e-01  1.86638987e-01  1.88908437e-01
  1.94073134e-01  1.95787799e-01  1.98342109e-01  1.98958213e-01
  1.99296886e-01  2.03421139e-01  2.07862595e-01  2.09788384e-01
  2.11829475e-01  2.12591765e-01  2.15893928e-01  2.20977848e-01
  2.22546945e-01  2.25467845e-01  2.28806962e-01  2.31265994e-01
  2.32763129e-01  2.34501245e-01  2.35231009e-01  2.39665817e-01
  2.41564049e-01  2.48060158e-01  2.49020851e-01  2.50088644e-01
  2.52354019e-01  2.56664065e-01  2.59064690e-01  2.61127610e-01
  2.62603825e-01  2.65710908e-01  2.69037814e-01  2.70600443e-01
  2.74990589e-01  2.76406959e-01  2.80664189e-01  2.85639064e-01
  2.87229907e-01  2.90030280e-01  2.94158773e-01  2.95777965e-01
  2.99820544e-01  3.01745684e-01  3.04689049e-01  3.08676419e-01
  3.11449340e-01  3.12783808e-01  3.17367200e-01  3.18197386e-01
  3.18520374e-01  3.23492744e-01  3.28151413e-01  3.29345274e-01
  3.30990808e-01  3.33984846e-01  3.34711664e-01  3.37331852e-01
  3.39416068e-01  3.39522799e-01  3.46342541e-01  3.47471874e-01
  3.51545276e-01  3.54662772e-01  3.55933068e-01  3.58446271e-01
  3.60243729e-01  3.64477043e-01  3.66903802e-01  3.72615310e-01
  3.74534867e-01  3.78792959e-01  3.81833710e-01  3.83345547e-01
  3.84341467e-01  3.89976430e-01  3.90371296e-01  3.91971198e-01
  3.93215379e-01  3.99317353e-01  4.00903246e-01  4.02133386e-01
  4.06006412e-01  4.10812913e-01  4.13641597e-01  4.15529221e-01
  4.17382077e-01  4.20454965e-01  4.22912278e-01  4.25138927e-01
  4.28010532e-01  4.30127888e-01  4.30844341e-01  4.34973204e-01
  4.37596320e-01  4.42112592e-01  4.42307733e-01  4.42750387e-01
  4.45488699e-01  4.49651093e-01  4.50355027e-01  4.58540811e-01
  4.58635594e-01  4.61033801e-01  4.63939739e-01  4.69043286e-01
  4.70028385e-01  4.72229710e-01  4.73210513e-01  4.76505880e-01
  4.77770231e-01  4.79386082e-01  4.83588244e-01  4.84559148e-01
  4.84652517e-01  4.88829149e-01  4.90448855e-01  4.93676588e-01
  4.94867813e-01  4.95815395e-01  4.99379263e-01  4.99613869e-01
  5.00050561e-01  5.03504798e-01  5.05669631e-01  5.08944358e-01
  5.11917260e-01  5.14243942e-01  5.16388506e-01  5.18425800e-01
  5.19864094e-01  5.21610494e-01  5.23386656e-01  5.27045879e-01
  5.29110241e-01  5.29652504e-01  5.32743073e-01  5.33598008e-01
  5.35563492e-01  5.39385008e-01  5.41900472e-01  5.42821426e-01
  5.46675899e-01  5.49168390e-01  5.50610873e-01  5.52587123e-01
  5.54710174e-01  5.56248059e-01  5.57823272e-01  5.62587011e-01
  5.65122181e-01  5.66651850e-01  5.70251163e-01  5.72279258e-01
  5.72969580e-01  5.76120755e-01  5.78536890e-01  5.79682328e-01
  5.80486528e-01  5.83487795e-01  5.84538123e-01  5.87335274e-01
  5.92420871e-01  5.95964812e-01  5.96263847e-01  6.00076664e-01
  6.01903505e-01  6.02951540e-01  6.06396068e-01  6.07228281e-01
  6.08270965e-01  6.11870798e-01  6.12438233e-01  6.18149620e-01
  6.20154297e-01  6.21719954e-01  6.27840910e-01  6.29078557e-01
  6.30695905e-01  6.35401092e-01  6.37285747e-01  6.40636037e-01
  6.42944107e-01  6.44488132e-01  6.46751681e-01  6.50121344e-01
  6.52493764e-01  6.55417850e-01  6.58992115e-01  6.60203502e-01
  6.61870703e-01  6.63804342e-01  6.66725400e-01  6.68427141e-01
  6.77097777e-01  6.78321292e-01  6.80285752e-01  6.84500025e-01
  6.87226270e-01  6.87649522e-01  6.94007617e-01  6.97173878e-01
  7.01256126e-01  7.03774193e-01  7.04119974e-01  7.09142705e-01
  7.11861497e-01  7.14541460e-01  7.16321074e-01  7.19468581e-01
  7.21005652e-01  7.28114459e-01  7.30154017e-01  7.33369508e-01
  7.38644909e-01  7.40243735e-01  7.43734794e-01  7.45807048e-01
  7.49019450e-01  7.50676006e-01  7.52916969e-01  7.55461596e-01
  7.61645184e-01  7.65167467e-01  7.68738905e-01  7.71148388e-01
  7.75651583e-01  7.78313285e-01  7.80442323e-01  7.83451950e-01
  7.87154335e-01  7.91976843e-01  7.93953706e-01  7.97707020e-01
  7.99007833e-01  8.01510779e-01  8.07144984e-01  8.07786610e-01
  8.14020964e-01  8.16279138e-01  8.17179295e-01  8.25086602e-01
  8.31025251e-01  8.31971767e-01  8.36764686e-01  8.38738576e-01
  8.40925303e-01  8.44054176e-01  8.49067089e-01  8.55602162e-01
  8.55896791e-01  8.61899018e-01  8.64935460e-01  8.69924595e-01
  8.74856123e-01  8.77128911e-01  8.82097787e-01  8.89878812e-01
  8.90718518e-01  8.92852032e-01  8.94256590e-01  8.97231419e-01
  9.01539001e-01  9.03380053e-01  9.07792370e-01  9.09978816e-01
  9.12682798e-01  9.19611364e-01  9.21571979e-01  9.25487754e-01
  9.29256761e-01  9.36047033e-01  9.41161827e-01  9.44122763e-01
  9.49123605e-01  9.53886668e-01  9.56589142e-01  9.62046155e-01
  9.64139547e-01  9.66273560e-01  9.68866516e-01  9.76334675e-01
  9.77186664e-01  9.80040024e-01  9.82748116e-01  9.86298040e-01
  9.90020426e-01  9.95193801e-01  9.98092281e-01  1.00025989e+00
  1.00682071e+00  1.00864895e+00  1.01311437e+00  1.01535882e+00
  1.02203853e+00  1.02503503e+00  1.02711155e+00  1.03191670e+00
  1.03579523e+00  1.03965016e+00  1.04810611e+00  1.04840314e+00
  1.05056681e+00  1.05354123e+00  1.05648652e+00  1.06521382e+00
  1.06856738e+00  1.07081074e+00  1.07407857e+00  1.07936159e+00
  1.08087686e+00  1.08261254e+00  1.08519898e+00  1.09064804e+00
  1.09489868e+00  1.09816933e+00  1.10382256e+00  1.10507182e+00
  1.10775616e+00  1.10911938e+00  1.11167641e+00  1.11733129e+00
  1.12293379e+00  1.12634468e+00  1.12902977e+00  1.13445819e+00
  1.13864685e+00  1.14421822e+00  1.14629252e+00  1.14864499e+00
  1.15523451e+00  1.15941608e+00  1.16747484e+00  1.17165110e+00
  1.17488758e+00  1.17905134e+00  1.18074986e+00  1.18657765e+00
  1.19019857e+00  1.19120614e+00  1.19909238e+00  1.19966128e+00
  1.20263991e+00  1.20665184e+00  1.20910832e+00  1.21258751e+00
  1.21809059e+00  1.22333851e+00  1.22650868e+00  1.22921615e+00
  1.23534725e+00  1.23766697e+00  1.24293908e+00  1.24692618e+00
  1.25117979e+00  1.25638172e+00  1.26085912e+00  1.26420976e+00
  1.26718105e+00  1.27279407e+00  1.27506241e+00  1.27827579e+00
  1.27883698e+00  1.28689472e+00  1.29123930e+00  1.29452581e+00
  1.29526034e+00  1.29757282e+00  1.30240532e+00  1.30859001e+00
  1.31311378e+00  1.31907855e+00  1.32256403e+00  1.32390396e+00
  1.32853934e+00  1.33287766e+00  1.33476140e+00  1.34234122e+00
  1.34412087e+00  1.35126597e+00  1.35786720e+00  1.36231771e+00
  1.36497725e+00  1.36655190e+00  1.37361349e+00  1.37652572e+00
  1.37845973e+00  1.38211941e+00  1.38732279e+00  1.39555020e+00
  1.39906504e+00  1.40294133e+00  1.40921719e+00  1.41216101e+00
  1.41697981e+00  1.41908284e+00  1.42665367e+00  1.42694138e+00
  1.43132443e+00  1.43439958e+00  1.44327005e+00  1.44641682e+00
  1.44827753e+00  1.44928722e+00  1.45195936e+00  1.45583371e+00
  1.46304624e+00  1.46910401e+00  1.47380726e+00  1.48073651e+00
  1.48249687e+00  1.48790626e+00  1.49252259e+00  1.49544123e+00
  1.50200008e+00  1.50722535e+00  1.51074897e+00  1.51685410e+00
  1.51714821e+00  1.52480988e+00  1.52837612e+00  1.53074513e+00
  1.53336482e+00  1.53902566e+00  1.54820012e+00  1.55586958e+00
  1.55963978e+00  1.56126976e+00  1.56334346e+00  1.56774297e+00
  1.57419994e+00  1.57752900e+00  1.58098715e+00  1.58609086e+00
  1.59103088e+00  1.59825508e+00  1.60050464e+00  1.60585772e+00
  1.61066062e+00  1.61605150e+00  1.61913226e+00  1.62256226e+00
  1.63055142e+00  1.63291305e+00  1.63804377e+00  1.64236076e+00
  1.64301341e+00  1.64740435e+00  1.64982438e+00  1.65160318e+00
  1.65289831e+00  1.65857135e+00  1.66085636e+00  1.66620891e+00
  1.66986927e+00  1.67194881e+00  1.67353026e+00  1.67613971e+00
  1.68073200e+00  1.68254336e+00  1.68557341e+00  1.68910248e+00
  1.69339771e+00  1.69753286e+00  1.69955714e+00  1.70467279e+00
  1.70749873e+00  1.71079627e+00  1.71270067e+00  1.71442392e+00
  1.72072140e+00  1.72186117e+00  1.72457327e+00  1.72645013e+00
  1.73439144e+00  1.73696466e+00  1.73961517e+00  1.74694299e+00
  1.74971907e+00  1.75305165e+00  1.75784035e+00  1.76122487e+00
  1.76337549e+00  1.76894143e+00  1.76989232e+00  1.77230540e+00
  1.77725158e+00  1.78192110e+00  1.78565482e+00  1.79067366e+00
  1.79396300e+00  1.79499382e+00  1.79922118e+00  1.80440132e+00
  1.80483318e+00  1.80978185e+00  1.81372157e+00  1.81428044e+00
  1.81917045e+00  1.82247788e+00  1.82641336e+00  1.83055239e+00
  1.83319820e+00  1.83698187e+00  1.84145036e+00  1.84408776e+00
  1.85232320e+00  1.85494104e+00  1.85571819e+00  1.86531527e+00
  1.86626131e+00  1.86897894e+00  1.87166382e+00  1.87725456e+00
  1.88363730e+00  1.89061224e+00  1.89383770e+00  1.89611011e+00
  1.90346485e+00  1.90743378e+00  1.91430591e+00  1.91923121e+00
  1.92270365e+00  1.92751523e+00  1.93161754e+00  1.93556563e+00
  1.93828887e+00  1.94270630e+00  1.94733238e+00  1.94862964e+00
  1.95441790e+00  1.95912951e+00  1.96329232e+00  1.96855388e+00
  1.96980476e+00  1.97654528e+00  1.98352711e+00  1.98545167e+00
  1.98741334e+00  1.99119177e+00  1.99436394e+00  1.99578327e+00
  2.00348494e+00  2.00396812e+00  2.00566118e+00  2.01007895e+00
  2.02111471e+00  2.02302199e+00  2.02792545e+00  2.03148749e+00
  2.03676217e+00  2.03959967e+00  2.04319156e+00  2.04996821e+00
  2.05575745e+00  2.05748138e+00  2.06567091e+00  2.06758535e+00
  2.06938128e+00  2.07458448e+00  2.07587465e+00  2.08152660e+00
  2.08282822e+00  2.08633952e+00  2.08928039e+00  2.09725264e+00
  2.10104860e+00  2.10674704e+00  2.10954096e+00  2.11669010e+00
  2.11977367e+00  2.12165332e+00  2.12539606e+00  2.12979089e+00
  2.13353010e+00  2.13885973e+00  2.14303687e+00  2.14720520e+00
  2.14914128e+00  2.15321258e+00  2.15499033e+00  2.16436097e+00
  2.16550179e+00  2.16963919e+00  2.17460973e+00  2.17857303e+00
  2.18482700e+00  2.18830834e+00  2.19288816e+00  2.19505530e+00
  2.20081316e+00  2.21047448e+00  2.21163084e+00  2.21798052e+00
  2.21986612e+00  2.22271709e+00  2.22620927e+00  2.23390604e+00
  2.23601718e+00  2.24079244e+00  2.24945070e+00  2.25060156e+00
  2.25376974e+00  2.25473150e+00  2.26480021e+00  2.26508263e+00
  2.27323715e+00  2.27763278e+00  2.28621992e+00  2.28882439e+00
  2.29020555e+00  2.29497543e+00  2.29570931e+00  2.30144185e+00
  2.30561359e+00  2.30900954e+00  2.31079998e+00  2.31425850e+00
  2.31729468e+00  2.32267242e+00  2.33096493e+00  2.33652515e+00
  2.33791003e+00  2.34111929e+00  2.34596981e+00  2.34954232e+00
  2.35359044e+00  2.36217376e+00  2.36515446e+00  2.36874571e+00
  2.37518950e+00  2.37948490e+00  2.38088031e+00  2.38546027e+00
  2.38913663e+00  2.39096669e+00  2.39552753e+00  2.40466710e+00
  2.40528726e+00  2.40849948e+00  2.41241181e+00  2.41804758e+00
  2.42016525e+00  2.42555273e+00  2.42851248e+00  2.43467318e+00
  2.43621107e+00  2.43830735e+00  2.44547344e+00  2.45052049e+00
  2.45366260e+00  2.46079344e+00  2.46271741e+00  2.46896430e+00
  2.47096685e+00  2.47470746e+00  2.47616266e+00  2.48000711e+00
  2.48485826e+00  2.49050081e+00  2.49334236e+00  2.49483537e+00
  2.50062577e+00  2.50545222e+00  2.51036626e+00  2.51412959e+00
  2.52070693e+00  2.52095489e+00  2.52623417e+00  2.53055085e+00
  2.53316549e+00  2.53640283e+00  2.54061935e+00  2.54672704e+00
  2.55039242e+00  2.55141246e+00  2.55439427e+00  2.55640417e+00
  2.56051202e+00  2.56424483e+00  2.56871658e+00  2.56958023e+00
  2.57534146e+00  2.58136426e+00  2.58805525e+00  2.59107699e+00
  2.60163728e+00  2.60257485e+00  2.60664499e+00  2.61201955e+00
  2.61892905e+00  2.62288632e+00  2.62483751e+00  2.63313351e+00
  2.63431442e+00  2.63568628e+00  2.64103947e+00  2.64261769e+00
  2.64456287e+00  2.65011825e+00  2.65512630e+00  2.65783181e+00
  2.66110442e+00  2.66245774e+00  2.67137542e+00  2.67514373e+00
  2.67952182e+00  2.68166659e+00  2.69018049e+00  2.69172448e+00
  2.69350289e+00  2.69904389e+00  2.70033656e+00  2.70278462e+00
  2.70615282e+00  2.71291479e+00  2.71456858e+00  2.71734753e+00
  2.72245421e+00  2.72376308e+00  2.72858082e+00  2.73079865e+00
  2.73707891e+00  2.74239590e+00  2.74434946e+00  2.74755476e+00
  2.75077988e+00  2.75290227e+00  2.75527039e+00  2.75895067e+00
  2.76306161e+00  2.77066634e+00  2.77806188e+00  2.78213384e+00
  2.78366475e+00  2.78489932e+00  2.78953060e+00  2.79348941e+00
  2.79583794e+00  2.80039284e+00  2.80165188e+00  2.80368073e+00
  2.81715529e+00  2.81841041e+00  2.82027590e+00  2.82724654e+00
  2.82863324e+00  2.83273728e+00  2.83687319e+00  2.84055690e+00
  2.84475058e+00  2.84642326e+00  2.85350759e+00  2.85539149e+00
  2.86203671e+00  2.86387606e+00  2.87039671e+00  2.87504879e+00
  2.88149788e+00  2.88343519e+00  2.88974155e+00  2.88995502e+00
  2.89839061e+00  2.89929907e+00  2.90291098e+00  2.90832342e+00
  2.90888685e+00  2.91277486e+00  2.91586032e+00  2.92080441e+00
  2.92407629e+00  2.93059667e+00  2.93388395e+00  2.93657714e+00
  2.94055487e+00  2.94279549e+00  2.94765586e+00  2.94996974e+00
  2.95236784e+00  2.95816864e+00  2.95910021e+00  2.96393522e+00
  2.96998208e+00  2.97468260e+00  2.97890891e+00  2.98237390e+00
  2.98555312e+00  2.98889067e+00  2.99625408e+00  2.99997153e+00
  3.00283436e+00  3.00416186e+00  3.01382108e+00  3.02095794e+00
  3.03248130e+00  3.03495234e+00  3.04042766e+00  3.04417782e+00
  3.04700482e+00  3.04968112e+00  3.05559614e+00  3.05857050e+00
  3.06209753e+00  3.06325907e+00  3.06928979e+00  3.07573872e+00
  3.07806544e+00  3.08333086e+00  3.08510391e+00  3.08955647e+00
  3.09395096e+00  3.09834334e+00  3.10074220e+00  3.10440432e+00
  3.10685425e+00  3.11067757e+00  3.11623453e+00  3.11706681e+00
  3.12020507e+00  3.12293182e+00  3.12929723e+00  3.13618445e+00
  3.13873288e+00  3.14208027e+00  3.14478833e+00  3.14575148e+00
  3.14970280e+00  3.15346194e+00  3.15713977e+00  3.15961259e+00
  3.16241962e+00  3.16905307e+00  3.16985236e+00  3.17496955e+00
  3.17677661e+00  3.18088343e+00  3.18308137e+00  3.18597189e+00
  3.19172100e+00  3.19552962e+00  3.19961174e+00  3.20202759e+00
  3.20585068e+00  3.20854526e+00  3.21184879e+00  3.21755484e+00
  3.21912700e+00  3.22056889e+00  3.22474498e+00  3.23026227e+00
  3.23149852e+00  3.23299985e+00  3.23760815e+00  3.24076422e+00
  3.24411400e+00  3.24765207e+00  3.25048992e+00  3.25266590e+00
  3.25750171e+00  3.25853094e+00  3.26282679e+00  3.26644987e+00
  3.27016790e+00  3.27080864e+00  3.27588944e+00  3.28160083e+00
  3.28410243e+00  3.28767773e+00  3.29372610e+00  3.29833728e+00
  3.29893746e+00  3.30338148e+00  3.30629870e+00  3.30833922e+00
  3.31301418e+00  3.31359080e+00  3.31731926e+00  3.32643415e+00
  3.32872034e+00  3.33144365e+00  3.33607017e+00  3.33839530e+00
  3.34077742e+00  3.34305479e+00  3.34498116e+00  3.35080233e+00
  3.35357005e+00  3.35598607e+00  3.35787209e+00  3.35926384e+00
  3.36499819e+00  3.36623575e+00  3.37056127e+00  3.37343814e+00
  3.37919184e+00  3.38022105e+00  3.38048790e+00  3.38468369e+00
  3.38650705e+00  3.39359445e+00  3.39600467e+00  3.39762425e+00
  3.40065303e+00  3.40194580e+00  3.40618188e+00  3.40670469e+00
  3.40983755e+00  3.41426679e+00  3.41615375e+00  3.42172497e+00
  3.42378577e+00  3.42721720e+00  3.43163628e+00  3.43448913e+00
  3.43751837e+00  3.43884729e+00  3.44516234e+00  3.44894086e+00
  3.45123179e+00  3.45539618e+00  3.45833242e+00  3.46039328e+00
  3.46443644e+00  3.46604992e+00  3.46853974e+00  3.47152461e+00
  3.47332693e+00  3.47810949e+00  3.48024352e+00  3.48508532e+00
  3.48621974e+00  3.48954388e+00  3.49476404e+00  3.49783681e+00
  3.50029272e+00  3.50331790e+00  3.50649519e+00  3.50893011e+00
  3.51306997e+00  3.51616384e+00  3.52098831e+00  3.52247941e+00
  3.52642110e+00  3.52920479e+00  3.53276187e+00  3.53484508e+00
  3.54094192e+00  3.54517431e+00  3.54779814e+00  3.55239567e+00
  3.55545620e+00  3.55740392e+00  3.56186090e+00  3.56582819e+00
  3.56995159e+00  3.57427576e+00  3.57729477e+00  3.57785226e+00
  3.58336535e+00  3.58436289e+00  3.58965046e+00  3.59014640e+00
  3.59558172e+00  3.59668430e+00  3.60808114e+00  3.60977832e+00
  3.61671124e+00  3.62012716e+00  3.62321964e+00  3.62564030e+00
  3.62868512e+00  3.63725610e+00  3.64101895e+00  3.64344515e+00
  3.64756095e+00  3.65413376e+00  3.65622117e+00  3.65814259e+00
  3.66190040e+00  3.67103818e+00  3.67662775e+00  3.68004880e+00
  3.68396929e+00  3.68674004e+00  3.69282620e+00  3.69523012e+00
  3.69913577e+00  3.70468534e+00  3.70965835e+00  3.71412892e+00
  3.72123689e+00  3.72308282e+00  3.72565545e+00  3.72800070e+00
  3.73618119e+00  3.74069599e+00  3.74235264e+00  3.74536224e+00
  3.75612395e+00  3.76425906e+00  3.76525022e+00  3.76933418e+00
  3.77450252e+00  3.78207945e+00  3.78619421e+00  3.78967206e+00
  3.79444412e+00  3.80036427e+00  3.80256873e+00  3.80909794e+00
  3.81424543e+00  3.81859369e+00  3.82410818e+00  3.82739621e+00
  3.83066623e+00  3.83307198e+00  3.83954109e+00  3.84294894e+00
  3.84885478e+00  3.85008762e+00  3.85272962e+00  3.85771105e+00
  3.86000379e+00  3.86711812e+00  3.87341967e+00  3.87913437e+00
  3.88183211e+00  3.88861777e+00  3.89201074e+00  3.89842852e+00
  3.90288912e+00  3.90943093e+00  3.91105445e+00  3.91147110e+00
  3.92144188e+00  3.92559812e+00  3.93302334e+00  3.93668553e+00
  3.94312028e+00  3.94471429e+00  3.95108279e+00  3.95747008e+00
  3.96328525e+00  3.97075960e+00  3.97438519e+00  3.98124827e+00
  3.98296718e+00  3.98801490e+00  3.99155731e+00  3.99520221e+00
  3.99993435e+00  4.00406682e+00  4.01279992e+00  4.01605333e+00
  4.02242516e+00  4.03203211e+00  4.03673694e+00  4.04308320e+00
  4.04422548e+00  4.05112974e+00  4.06180820e+00  4.06553560e+00
  4.06934941e+00  4.07277153e+00  4.07443049e+00  4.07882572e+00
  4.08539142e+00  4.08839326e+00  4.09019285e+00  4.10173135e+00
  4.10931435e+00  4.11266692e+00  4.12144108e+00  4.12770638e+00
  4.12865022e+00  4.13493219e+00  4.13761512e+00  4.15012609e+00
  4.15748652e+00  4.16438794e+00  4.16967363e+00  4.17600334e+00
  4.18150704e+00  4.18679785e+00  4.19234764e+00  4.20021628e+00
  4.20825112e+00  4.21337782e+00  4.22153021e+00  4.22387660e+00
  4.23214110e+00  4.23395348e+00  4.23745097e+00  4.24699015e+00
  4.25466159e+00  4.25723457e+00  4.27005088e+00  4.27212667e+00
  4.28308459e+00  4.28900473e+00  4.29349590e+00  4.29785868e+00
  4.30476078e+00  4.31104630e+00  4.31668734e+00  4.32916389e+00
  4.33380630e+00  4.33761904e+00  4.34140845e+00  4.35860339e+00
  4.36598452e+00  4.36730987e+00  4.37996837e+00  4.38265177e+00
  4.38846735e+00  4.39525540e+00  4.40041133e+00  4.41097666e+00
  4.41958365e+00  4.42605995e+00  4.44409604e+00  4.44684217e+00
  4.45056029e+00  4.45182341e+00  4.45448177e+00  4.45975359e+00
  4.47014926e+00  4.47273697e+00  4.47573582e+00  4.48245596e+00
  4.48868266e+00  4.49147339e+00  4.49701108e+00  4.50231208e+00
  4.50591068e+00  4.51727247e+00  4.51978045e+00  4.53316794e+00
  4.53760013e+00  4.54395949e+00  4.55016763e+00  4.55522412e+00
  4.56144696e+00  4.57036791e+00  4.57562329e+00  4.58225682e+00
  4.59177858e+00  4.60255311e+00  4.60866739e+00  4.61199320e+00
  4.62291508e+00  4.63300807e+00  4.63752861e+00  4.64015166e+00
  4.65033475e+00  4.65743548e+00  4.66093054e+00  4.66655252e+00
  4.67449706e+00  4.67882630e+00  4.68793363e+00  4.70262285e+00
  4.70790359e+00  4.71107074e+00  4.71765797e+00  4.72792676e+00
  4.73601060e+00  4.74309137e+00  4.75355468e+00  4.77168246e+00
  4.77451143e+00  4.78299827e+00  4.80025264e+00  4.80258781e+00
  4.82327988e+00  4.83243427e+00  4.83892468e+00  4.85272427e+00
  4.86379384e+00  4.86962869e+00  4.87903770e+00  4.88650577e+00
  4.89066694e+00  4.89557782e+00  4.90573076e+00  4.91713274e+00
  4.92167032e+00  4.92564426e+00  4.93596132e+00  4.94136379e+00
  4.95056780e+00  4.95255075e+00  4.95766606e+00  4.96226892e+00
  4.97682422e+00  4.97729767e+00  4.99551166e+00  5.00781496e+00
  5.01618886e+00  5.02102240e+00  5.03409275e+00  5.04183967e+00
  5.05438333e+00  5.06491050e+00  5.08047442e+00  5.08783848e+00
  5.09580357e+00  5.11007946e+00  5.11580566e+00  5.13907812e+00
  5.14332079e+00  5.15061610e+00  5.16029583e+00  5.17555993e+00
  5.18756672e+00  5.19685258e+00  5.20288504e+00  5.21449783e+00
  5.22170169e+00  5.22638262e+00  5.24018134e+00  5.24538068e+00
  5.25288763e+00  5.25834844e+00  5.26068660e+00  5.26363902e+00
  5.26618206e+00  5.26982869e+00  5.28009363e+00  5.28300029e+00
  5.29725806e+00  5.31166027e+00  5.31367311e+00  5.32094068e+00
  5.33371179e+00  5.33939257e+00  5.34269942e+00  5.34821135e+00
  5.35752849e+00  5.37264022e+00  5.38071234e+00  5.38542501e+00
  5.39357237e+00  5.40249031e+00  5.40677576e+00  5.41480134e+00
  5.41952012e+00  5.42743506e+00  5.43840892e+00  5.44045529e+00
  5.45174050e+00  5.45623864e+00  5.46050979e+00  5.46820408e+00
  5.48519957e+00  5.52411124e+00  5.53270212e+00  5.54801045e+00
  5.54969104e+00  5.56776672e+00  5.57335330e+00  5.58924850e+00
  5.60293010e+00  5.61857867e+00  5.65808791e+00  5.66645498e+00
  5.67902425e+00  5.68246402e+00  5.69852063e+00  5.69970574e+00
  5.74201292e+00  5.74515136e+00  5.76503562e+00  5.77764496e+00
  5.79882872e+00  5.81313388e+00  5.82103713e+00  5.82368905e+00
  5.85612752e+00  5.86327268e+00  5.86778379e+00  5.88166710e+00
  5.92589571e+00  5.93860715e+00  5.94622044e+00  5.99567236e+00
  6.00564145e+00  6.02925414e+00  6.03092379e+00  6.04927756e+00
  6.05591191e+00  6.11150765e+00  6.14229529e+00  6.17189710e+00
  6.18356882e+00  6.19390159e+00  6.21019959e+00  6.27014037e+00
  6.27325229e+00  6.29773582e+00  6.31506090e+00  6.33616929e+00
  6.39970220e+00  6.40741222e+00  6.45293096e+00  6.48316434e+00
  6.50750532e+00  6.51597751e+00  6.52191204e+00  6.52588441e+00
  6.55418692e+00  6.56777241e+00  6.61226500e+00  6.68725660e+00
  6.69610598e+00  6.72049408e+00  6.73453755e+00  6.76899255e+00
  6.77454374e+00  6.82873415e+00  6.83019354e+00  6.83871358e+00
  6.89611997e+00  6.90304896e+00  6.91727613e+00  6.94450072e+00
  6.97193027e+00  6.97631757e+00  6.98772254e+00  7.03492043e+00
  7.15734148e+00  7.17271915e+00  7.18613690e+00  7.21107031e+00
  7.21458195e+00  7.23245527e+00  7.23308771e+00  7.24266106e+00
  7.35241844e+00  7.40261816e+00  2.23711581e+01  2.23744947e+01
  2.24644007e+01  2.24675618e+01  2.24789079e+01  2.25375909e+01
  2.25555023e+01  2.25705425e+01  2.25960076e+01  2.26092158e+01
  2.26501103e+01  2.26977297e+01  2.27199071e+01  2.27300348e+01
  2.27596544e+01  2.27759601e+01  2.27938350e+01  2.28511078e+01
  2.28700426e+01  2.28845068e+01  2.30613826e+01  2.31193753e+01
  2.32410555e+01  2.33149035e+01  2.33224638e+01  2.33724285e+01
  2.33940173e+01  2.34152792e+01  2.34586534e+01  2.34620481e+01
  2.35374164e+01  2.36391749e+01  2.37858601e+01  3.25550823e+01
  3.25943262e+01  3.26964219e+01  3.27361734e+01  4.38222236e+01
  4.38879241e+01  4.39879203e+01  4.40119621e+01  4.40807362e+01
  4.41120664e+01]
nelec by numeric integration = 314.0014773626459
    CPU time for vxc    381.40 sec, wall time     19.50 sec
    CPU time for df vj and vk   2572.94 sec, wall time    145.73 sec
    CPU time for df vj and vk   1963.54 sec, wall time    100.00 sec
E1 = -13530.129746861148  Ecoul = 6388.8690274704295  Exc = -273.06951281685735
cycle= 1 E= -1952.24384921341  delta_E= -0.000761  |g|= 0.000219  |ddm|= 0.000243
    CPU time for cycle= 1   4929.79 sec, wall time    265.92 sec
  HOMO = -0.272585559192514  LUMO = 0.00668795797187958
  mo_energy =
[-1.92789359e+01 -1.92505032e+01 -1.92204917e+01 -1.92022706e+01
 -1.91601585e+01 -1.91575151e+01 -1.44513900e+01 -1.44344878e+01
 -1.44223678e+01 -1.44159501e+01 -1.04311355e+01 -1.04101256e+01
 -1.03571022e+01 -1.03379407e+01 -1.03269200e+01 -1.03205922e+01
 -1.03125969e+01 -1.03015946e+01 -1.03009260e+01 -1.02974467e+01
 -1.02970008e+01 -1.02939665e+01 -1.02936044e+01 -1.02889057e+01
 -1.02873668e+01 -1.02853109e+01 -1.02845088e+01 -1.02832003e+01
 -1.02817982e+01 -1.02817029e+01 -1.02784602e+01 -1.02780821e+01
 -1.02708493e+01 -1.02672207e+01 -1.02649078e+01 -1.02573238e+01
 -1.02516364e+01 -1.02510302e+01 -1.02468341e+01 -1.02466103e+01
 -1.02455444e+01 -1.02429107e+01 -1.02407841e+01 -1.26951451e+00
 -1.24609339e+00 -1.17373873e+00 -1.15784552e+00 -1.15709048e+00
 -1.14126730e+00 -1.11803519e+00 -1.10317180e+00 -1.09644787e+00
 -1.07546191e+00 -9.76522995e-01 -9.71703732e-01 -9.63244391e-01
 -9.38206339e-01 -9.34940484e-01 -9.28544038e-01 -9.25155359e-01
 -9.11370584e-01 -9.03917306e-01 -8.88223835e-01 -8.75046481e-01
 -8.56316529e-01 -8.43929738e-01 -8.35942875e-01 -8.27165464e-01
 -8.17366128e-01 -8.09900658e-01 -7.96905924e-01 -7.86719315e-01
 -7.67493795e-01 -7.57826491e-01 -7.55115800e-01 -7.40529346e-01
 -7.38321286e-01 -7.22570165e-01 -7.11750725e-01 -6.98099540e-01
 -6.82444469e-01 -6.76245175e-01 -6.68314085e-01 -6.63945421e-01
 -6.58670163e-01 -6.53370390e-01 -6.49343467e-01 -6.47422585e-01
 -6.36049722e-01 -6.30118949e-01 -6.25573250e-01 -6.13998882e-01
 -6.13215022e-01 -6.04923489e-01 -5.98392986e-01 -5.89344906e-01
 -5.84982013e-01 -5.80416869e-01 -5.76862269e-01 -5.71611682e-01
 -5.66122509e-01 -5.62666772e-01 -5.58033096e-01 -5.56543502e-01
 -5.52771231e-01 -5.48520028e-01 -5.46642915e-01 -5.43484872e-01
 -5.36700924e-01 -5.36276733e-01 -5.30890736e-01 -5.29870168e-01
 -5.27657329e-01 -5.25774535e-01 -5.21052863e-01 -5.20370442e-01
 -5.16837335e-01 -5.14994497e-01 -5.11761127e-01 -5.10693779e-01
 -5.04388975e-01 -5.02921066e-01 -4.97785023e-01 -4.97419608e-01
 -4.94707696e-01 -4.90620002e-01 -4.88668572e-01 -4.81496910e-01
 -4.80880079e-01 -4.77657181e-01 -4.74613894e-01 -4.70115420e-01
 -4.68256923e-01 -4.67268605e-01 -4.64635938e-01 -4.61927184e-01
 -4.59826601e-01 -4.58103924e-01 -4.54270926e-01 -4.49252246e-01
 -4.42795803e-01 -4.36849514e-01 -4.34939035e-01 -4.33896303e-01
 -4.21894297e-01 -4.21463086e-01 -4.19010677e-01 -3.98319889e-01
 -3.62612538e-01 -3.58730202e-01 -3.56079443e-01 -3.40740455e-01
 -3.38246173e-01 -3.32790474e-01 -3.21064648e-01 -2.89393064e-01
 -2.72585559e-01  6.68795797e-03  3.19662047e-02  5.88080024e-02
  6.73703318e-02  7.55168166e-02  8.36627906e-02  9.11809622e-02
  9.53296722e-02  1.02295021e-01  1.05323991e-01  1.09426104e-01
  1.15200622e-01  1.17589601e-01  1.21489388e-01  1.23151226e-01
  1.29784316e-01  1.34932125e-01  1.37455509e-01  1.41757874e-01
  1.44674609e-01  1.48141106e-01  1.50384426e-01  1.55094041e-01
  1.59839668e-01  1.60438890e-01  1.65272597e-01  1.66191863e-01
  1.70376297e-01  1.71072163e-01  1.75153654e-01  1.78468760e-01
  1.81193415e-01  1.83333900e-01  1.86639030e-01  1.88908860e-01
  1.94073108e-01  1.95787691e-01  1.98342451e-01  1.98958300e-01
  1.99296645e-01  2.03421156e-01  2.07862818e-01  2.09788346e-01
  2.11829608e-01  2.12591829e-01  2.15894036e-01  2.20978020e-01
  2.22547123e-01  2.25467683e-01  2.28807142e-01  2.31266101e-01
  2.32763344e-01  2.34501352e-01  2.35231106e-01  2.39665896e-01
  2.41563978e-01  2.48060361e-01  2.49020911e-01  2.50088890e-01
  2.52354106e-01  2.56664149e-01  2.59064698e-01  2.61127381e-01
  2.62603829e-01  2.65711130e-01  2.69037588e-01  2.70600693e-01
  2.74989393e-01  2.76406802e-01  2.80664353e-01  2.85639179e-01
  2.87229920e-01  2.90028748e-01  2.94158920e-01  2.95778171e-01
  2.99819533e-01  3.01743709e-01  3.04688993e-01  3.08676353e-01
  3.11449270e-01  3.12783054e-01  3.17367046e-01  3.18197488e-01
  3.18520227e-01  3.23492827e-01  3.28151424e-01  3.29345590e-01
  3.30990585e-01  3.33984956e-01  3.34711455e-01  3.37331808e-01
  3.39416258e-01  3.39522865e-01  3.46342539e-01  3.47472087e-01
  3.51545029e-01  3.54662946e-01  3.55932951e-01  3.58446411e-01
  3.60243457e-01  3.64477084e-01  3.66904042e-01  3.72615377e-01
  3.74534666e-01  3.78792883e-01  3.81832554e-01  3.83345856e-01
  3.84340604e-01  3.89975826e-01  3.90370633e-01  3.91970944e-01
  3.93215373e-01  3.99316909e-01  4.00901241e-01  4.02133524e-01
  4.06006554e-01  4.10812981e-01  4.13641624e-01  4.15528589e-01
  4.17382007e-01  4.20454349e-01  4.22912118e-01  4.25132815e-01
  4.28010467e-01  4.30127897e-01  4.30844025e-01  4.34973062e-01
  4.37595715e-01  4.42111447e-01  4.42307742e-01  4.42750459e-01
  4.45488205e-01  4.49650766e-01  4.50354856e-01  4.58540027e-01
  4.58635645e-01  4.61034072e-01  4.63939782e-01  4.69042634e-01
  4.70028555e-01  4.72229800e-01  4.73209989e-01  4.76506096e-01
  4.77770353e-01  4.79385903e-01  4.83588344e-01  4.84559366e-01
  4.84652565e-01  4.88825259e-01  4.90448485e-01  4.93676482e-01
  4.94868040e-01  4.95814894e-01  4.99378503e-01  4.99613983e-01
  5.00049985e-01  5.03505108e-01  5.05669128e-01  5.08944144e-01
  5.11917446e-01  5.14244081e-01  5.16388571e-01  5.18425562e-01
  5.19864041e-01  5.21610146e-01  5.23386030e-01  5.27044717e-01
  5.29109362e-01  5.29652210e-01  5.32742954e-01  5.33598088e-01
  5.35563699e-01  5.39384714e-01  5.41900050e-01  5.42821237e-01
  5.46675661e-01  5.49168021e-01  5.50610595e-01  5.52586724e-01
  5.54710362e-01  5.56247377e-01  5.57823166e-01  5.62586533e-01
  5.65121207e-01  5.66651158e-01  5.70248589e-01  5.72278678e-01
  5.72969731e-01  5.76120810e-01  5.78536690e-01  5.79679742e-01
  5.80484598e-01  5.83486900e-01  5.84537653e-01  5.87334921e-01
  5.92420529e-01  5.95964546e-01  5.96263504e-01  6.00076782e-01
  6.01903581e-01  6.02950468e-01  6.06395373e-01  6.07228183e-01
  6.08270703e-01  6.11869829e-01  6.12436682e-01  6.18149521e-01
  6.20153352e-01  6.21719807e-01  6.27839352e-01  6.29078130e-01
  6.30695502e-01  6.35400905e-01  6.37285803e-01  6.40636132e-01
  6.42944194e-01  6.44487828e-01  6.46751795e-01  6.50121237e-01
  6.52493685e-01  6.55417521e-01  6.58992428e-01  6.60203034e-01
  6.61870514e-01  6.63804257e-01  6.66725299e-01  6.68427240e-01
  6.77097674e-01  6.78321356e-01  6.80285618e-01  6.84500052e-01
  6.87226305e-01  6.87649745e-01  6.94007605e-01  6.97173365e-01
  7.01256303e-01  7.03773997e-01  7.04120137e-01  7.09142839e-01
  7.11861345e-01  7.14540661e-01  7.16321239e-01  7.19468402e-01
  7.21005545e-01  7.28114668e-01  7.30153934e-01  7.33369726e-01
  7.38644910e-01  7.40244021e-01  7.43734506e-01  7.45806974e-01
  7.49019603e-01  7.50676250e-01  7.52916904e-01  7.55461375e-01
  7.61645518e-01  7.65167529e-01  7.68738974e-01  7.71147952e-01
  7.75651758e-01  7.78313248e-01  7.80442699e-01  7.83452074e-01
  7.87154587e-01  7.91976371e-01  7.93953926e-01  7.97707265e-01
  7.99007667e-01  8.01510788e-01  8.07145009e-01  8.07786456e-01
  8.14020616e-01  8.16278433e-01  8.17179237e-01  8.25086766e-01
  8.31025504e-01  8.31971922e-01  8.36764894e-01  8.38738708e-01
  8.40925166e-01  8.44054372e-01  8.49067074e-01  8.55602186e-01
  8.55897099e-01  8.61899184e-01  8.64935896e-01  8.69924575e-01
  8.74856280e-01  8.77128975e-01  8.82097958e-01  8.89879034e-01
  8.90718666e-01  8.92852225e-01  8.94256824e-01  8.97231477e-01
  9.01539169e-01  9.03380295e-01  9.07792686e-01  9.09978962e-01
  9.12683204e-01  9.19611424e-01  9.21572097e-01  9.25487754e-01
  9.29256893e-01  9.36047258e-01  9.41161247e-01  9.44122439e-01
  9.49123846e-01  9.53886764e-01  9.56589068e-01  9.62046201e-01
  9.64139347e-01  9.66273995e-01  9.68866875e-01  9.76334751e-01
  9.77186933e-01  9.80040166e-01  9.82748201e-01  9.86298232e-01
  9.90020479e-01  9.95193805e-01  9.98092076e-01  1.00025973e+00
  1.00682017e+00  1.00864896e+00  1.01311452e+00  1.01535809e+00
  1.02203715e+00  1.02503412e+00  1.02711134e+00  1.03191627e+00
  1.03579537e+00  1.03964999e+00  1.04810605e+00  1.04840302e+00
  1.05056702e+00  1.05354129e+00  1.05648672e+00  1.06521391e+00
  1.06856725e+00  1.07081059e+00  1.07407860e+00  1.07936165e+00
  1.08087654e+00  1.08261254e+00  1.08519813e+00  1.09064809e+00
  1.09489823e+00  1.09816830e+00  1.10382187e+00  1.10507182e+00
  1.10775585e+00  1.10911919e+00  1.11167613e+00  1.11733128e+00
  1.12293334e+00  1.12634460e+00  1.12902960e+00  1.13445826e+00
  1.13864678e+00  1.14421785e+00  1.14629233e+00  1.14864489e+00
  1.15523454e+00  1.15941624e+00  1.16747497e+00  1.17165106e+00
  1.17488745e+00  1.17905152e+00  1.18074837e+00  1.18657678e+00
  1.19019862e+00  1.19120611e+00  1.19909159e+00  1.19966149e+00
  1.20263984e+00  1.20665145e+00  1.20910796e+00  1.21258760e+00
  1.21809042e+00  1.22333867e+00  1.22650868e+00  1.22921617e+00
  1.23534609e+00  1.23766698e+00  1.24293914e+00  1.24692622e+00
  1.25117994e+00  1.25638150e+00  1.26085922e+00  1.26420973e+00
  1.26718108e+00  1.27279408e+00  1.27506244e+00  1.27827603e+00
  1.27883707e+00  1.28689482e+00  1.29123899e+00  1.29452597e+00
  1.29526030e+00  1.29757294e+00  1.30240511e+00  1.30859006e+00
  1.31311388e+00  1.31907872e+00  1.32256413e+00  1.32390418e+00
  1.32853951e+00  1.33287782e+00  1.33476153e+00  1.34234138e+00
  1.34412102e+00  1.35126590e+00  1.35786742e+00  1.36231767e+00
  1.36497739e+00  1.36655185e+00  1.37361327e+00  1.37652589e+00
  1.37845897e+00  1.38211909e+00  1.38732208e+00  1.39554746e+00
  1.39906525e+00  1.40294063e+00  1.40921721e+00  1.41216098e+00
  1.41697986e+00  1.41908239e+00  1.42665275e+00  1.42694019e+00
  1.43132392e+00  1.43439871e+00  1.44327004e+00  1.44641691e+00
  1.44827698e+00  1.44928720e+00  1.45195872e+00  1.45583354e+00
  1.46304649e+00  1.46910335e+00  1.47380749e+00  1.48073664e+00
  1.48249698e+00  1.48790643e+00  1.49252268e+00  1.49544142e+00
  1.50200021e+00  1.50722548e+00  1.51074897e+00  1.51685431e+00
  1.51714837e+00  1.52480977e+00  1.52837620e+00  1.53074525e+00
  1.53336490e+00  1.53902582e+00  1.54819926e+00  1.55586958e+00
  1.55964012e+00  1.56126978e+00  1.56334357e+00  1.56774309e+00
  1.57420020e+00  1.57752837e+00  1.58098736e+00  1.58609102e+00
  1.59103032e+00  1.59825515e+00  1.60050462e+00  1.60585797e+00
  1.61066080e+00  1.61605175e+00  1.61913230e+00  1.62256237e+00
  1.63055155e+00  1.63291304e+00  1.63804393e+00  1.64236080e+00
  1.64301357e+00  1.64740452e+00  1.64982455e+00  1.65160329e+00
  1.65289847e+00  1.65857154e+00  1.66085655e+00  1.66620913e+00
  1.66986940e+00  1.67194895e+00  1.67352962e+00  1.67613984e+00
  1.68073165e+00  1.68254339e+00  1.68557365e+00  1.68910269e+00
  1.69339808e+00  1.69753297e+00  1.69955671e+00  1.70467268e+00
  1.70749864e+00  1.71079625e+00  1.71270042e+00  1.71442383e+00
  1.72072090e+00  1.72186093e+00  1.72457248e+00  1.72645033e+00
  1.73438796e+00  1.73696482e+00  1.73961401e+00  1.74694321e+00
  1.74971925e+00  1.75305172e+00  1.75784051e+00  1.76122459e+00
  1.76337559e+00  1.76894158e+00  1.76989068e+00  1.77230545e+00
  1.77725143e+00  1.78192037e+00  1.78565485e+00  1.79067321e+00
  1.79396303e+00  1.79499370e+00  1.79922117e+00  1.80440091e+00
  1.80483231e+00  1.80977865e+00  1.81372130e+00  1.81428050e+00
  1.81916988e+00  1.82247776e+00  1.82641268e+00  1.83055208e+00
  1.83319830e+00  1.83698158e+00  1.84144985e+00  1.84408766e+00
  1.85232210e+00  1.85493972e+00  1.85571562e+00  1.86531475e+00
  1.86625912e+00  1.86897871e+00  1.87166362e+00  1.87725409e+00
  1.88363512e+00  1.89061243e+00  1.89383783e+00  1.89611037e+00
  1.90346509e+00  1.90743362e+00  1.91430570e+00  1.91922929e+00
  1.92270139e+00  1.92751537e+00  1.93161752e+00  1.93556585e+00
  1.93828861e+00  1.94270636e+00  1.94733114e+00  1.94862960e+00
  1.95441818e+00  1.95912788e+00  1.96329202e+00  1.96855398e+00
  1.96980448e+00  1.97654537e+00  1.98352497e+00  1.98545174e+00
  1.98741369e+00  1.99119162e+00  1.99436361e+00  1.99578296e+00
  2.00348450e+00  2.00396805e+00  2.00566116e+00  2.01007834e+00
  2.02111406e+00  2.02301422e+00  2.02792495e+00  2.03148750e+00
  2.03676186e+00  2.03959843e+00  2.04319116e+00  2.04996647e+00
  2.05575709e+00  2.05748046e+00  2.06567033e+00  2.06758497e+00
  2.06938007e+00  2.07458437e+00  2.07587360e+00  2.08152624e+00
  2.08282802e+00  2.08633942e+00  2.08928041e+00  2.09725278e+00
  2.10104781e+00  2.10674700e+00  2.10954081e+00  2.11668996e+00
  2.11977330e+00  2.12165283e+00  2.12539605e+00  2.12979063e+00
  2.13353003e+00  2.13885940e+00  2.14303704e+00  2.14720532e+00
  2.14914096e+00  2.15321270e+00  2.15498721e+00  2.16436088e+00
  2.16550195e+00  2.16963927e+00  2.17460969e+00  2.17857313e+00
  2.18482566e+00  2.18830805e+00  2.19288788e+00  2.19505360e+00
  2.20081261e+00  2.21047473e+00  2.21163006e+00  2.21798057e+00
  2.21986631e+00  2.22271659e+00  2.22620923e+00  2.23390614e+00
  2.23601708e+00  2.24079207e+00  2.24945067e+00  2.25060085e+00
  2.25376988e+00  2.25473099e+00  2.26479986e+00  2.26508230e+00
  2.27323483e+00  2.27763292e+00  2.28621930e+00  2.28882195e+00
  2.29020550e+00  2.29497366e+00  2.29570915e+00  2.30144152e+00
  2.30560606e+00  2.30900971e+00  2.31080004e+00  2.31425796e+00
  2.31729477e+00  2.32267260e+00  2.33096334e+00  2.33652141e+00
  2.33791009e+00  2.34111945e+00  2.34596905e+00  2.34954173e+00
  2.35359002e+00  2.36217377e+00  2.36515447e+00  2.36874519e+00
  2.37518928e+00  2.37948501e+00  2.38087998e+00  2.38546029e+00
  2.38913648e+00  2.39096706e+00  2.39552642e+00  2.40466738e+00
  2.40528720e+00  2.40849644e+00  2.41241141e+00  2.41804749e+00
  2.42016498e+00  2.42555286e+00  2.42851224e+00  2.43467265e+00
  2.43621129e+00  2.43830742e+00  2.44547347e+00  2.45052050e+00
  2.45366276e+00  2.46079349e+00  2.46271750e+00  2.46896425e+00
  2.47096702e+00  2.47470755e+00  2.47616282e+00  2.48000709e+00
  2.48485811e+00  2.49050097e+00  2.49334176e+00  2.49483420e+00
  2.50062574e+00  2.50545235e+00  2.51036641e+00  2.51412909e+00
  2.52070700e+00  2.52095486e+00  2.52623395e+00  2.53055101e+00
  2.53316568e+00  2.53640346e+00  2.54061951e+00  2.54672713e+00
  2.55039154e+00  2.55141254e+00  2.55439417e+00  2.55640422e+00
  2.56051206e+00  2.56424451e+00  2.56871605e+00  2.56957975e+00
  2.57534058e+00  2.58136434e+00  2.58805533e+00  2.59107703e+00
  2.60163695e+00  2.60257394e+00  2.60664489e+00  2.61201919e+00
  2.61892878e+00  2.62288307e+00  2.62483731e+00  2.63313326e+00
  2.63431402e+00  2.63568585e+00  2.64103989e+00  2.64261779e+00
  2.64456316e+00  2.65011520e+00  2.65512606e+00  2.65783160e+00
  2.66110452e+00  2.66245795e+00  2.67137600e+00  2.67514371e+00
  2.67952199e+00  2.68166253e+00  2.69017928e+00  2.69172444e+00
  2.69350311e+00  2.69904326e+00  2.70033636e+00  2.70278477e+00
  2.70615268e+00  2.71291275e+00  2.71456779e+00  2.71734755e+00
  2.72245223e+00  2.72376251e+00  2.72858057e+00  2.73079606e+00
  2.73707891e+00  2.74239583e+00  2.74434894e+00  2.74755492e+00
  2.75078030e+00  2.75289748e+00  2.75526337e+00  2.75895051e+00
  2.76306047e+00  2.77066569e+00  2.77805595e+00  2.78213348e+00
  2.78366440e+00  2.78489590e+00  2.78953080e+00  2.79348839e+00
  2.79583754e+00  2.80039266e+00  2.80165208e+00  2.80368042e+00
  2.81715542e+00  2.81841018e+00  2.82027537e+00  2.82724671e+00
  2.82863352e+00  2.83273638e+00  2.83687297e+00  2.84055704e+00
  2.84475043e+00  2.84641993e+00  2.85350625e+00  2.85539072e+00
  2.86203592e+00  2.86387602e+00  2.87039693e+00  2.87504916e+00
  2.88149806e+00  2.88343506e+00  2.88974192e+00  2.88995515e+00
  2.89839071e+00  2.89929942e+00  2.90291121e+00  2.90832297e+00
  2.90888681e+00  2.91277468e+00  2.91586041e+00  2.92080475e+00
  2.92407621e+00  2.93059512e+00  2.93388363e+00  2.93657632e+00
  2.94055510e+00  2.94279560e+00  2.94765592e+00  2.94996990e+00
  2.95236793e+00  2.95816893e+00  2.95910033e+00  2.96393500e+00
  2.96998214e+00  2.97468280e+00  2.97890897e+00  2.98237405e+00
  2.98555265e+00  2.98889061e+00  2.99625426e+00  2.99997182e+00
  3.00283122e+00  3.00416174e+00  3.01382126e+00  3.02095473e+00
  3.03248149e+00  3.03495219e+00  3.04042559e+00  3.04417784e+00
  3.04700331e+00  3.04968067e+00  3.05559615e+00  3.05857054e+00
  3.06209788e+00  3.06325911e+00  3.06928948e+00  3.07573877e+00
  3.07806453e+00  3.08333034e+00  3.08510414e+00  3.08955625e+00
  3.09394954e+00  3.09834337e+00  3.10074164e+00  3.10440380e+00
  3.10685429e+00  3.11067732e+00  3.11623464e+00  3.11706657e+00
  3.12020443e+00  3.12293126e+00  3.12929654e+00  3.13618333e+00
  3.13873168e+00  3.14208039e+00  3.14478804e+00  3.14575155e+00
  3.14970273e+00  3.15346205e+00  3.15713995e+00  3.15961231e+00
  3.16241831e+00  3.16905312e+00  3.16985154e+00  3.17496980e+00
  3.17677675e+00  3.18088075e+00  3.18308144e+00  3.18597175e+00
  3.19172096e+00  3.19552933e+00  3.19961176e+00  3.20202772e+00
  3.20584916e+00  3.20854502e+00  3.21184857e+00  3.21755494e+00
  3.21912666e+00  3.22056888e+00  3.22474523e+00  3.23026250e+00
  3.23149837e+00  3.23299895e+00  3.23760834e+00  3.24076401e+00
  3.24411316e+00  3.24765140e+00  3.25048996e+00  3.25266594e+00
  3.25750144e+00  3.25853101e+00  3.26282684e+00  3.26644982e+00
  3.27016792e+00  3.27080867e+00  3.27588811e+00  3.28160057e+00
  3.28410250e+00  3.28767774e+00  3.29372586e+00  3.29833728e+00
  3.29893771e+00  3.30338122e+00  3.30629852e+00  3.30833928e+00
  3.31301427e+00  3.31359079e+00  3.31731649e+00  3.32643367e+00
  3.32872001e+00  3.33144359e+00  3.33606788e+00  3.33839548e+00
  3.34077738e+00  3.34305472e+00  3.34497953e+00  3.35080228e+00
  3.35356968e+00  3.35598434e+00  3.35787228e+00  3.35926410e+00
  3.36499840e+00  3.36623250e+00  3.37056129e+00  3.37343756e+00
  3.37919165e+00  3.38022096e+00  3.38048621e+00  3.38468359e+00
  3.38650682e+00  3.39358774e+00  3.39600422e+00  3.39762341e+00
  3.40065196e+00  3.40194405e+00  3.40617936e+00  3.40670293e+00
  3.40983735e+00  3.41426641e+00  3.41615387e+00  3.42172480e+00
  3.42378555e+00  3.42721596e+00  3.43163629e+00  3.43448920e+00
  3.43751808e+00  3.43884605e+00  3.44516251e+00  3.44893996e+00
  3.45123119e+00  3.45539558e+00  3.45833202e+00  3.46039314e+00
  3.46443603e+00  3.46604954e+00  3.46853866e+00  3.47152371e+00
  3.47332645e+00  3.47810873e+00  3.48024332e+00  3.48508508e+00
  3.48621864e+00  3.48954405e+00  3.49476399e+00  3.49783691e+00
  3.50029244e+00  3.50331775e+00  3.50649442e+00  3.50893028e+00
  3.51306999e+00  3.51616304e+00  3.52098829e+00  3.52247890e+00
  3.52642002e+00  3.52920469e+00  3.53276202e+00  3.53484519e+00
  3.54094191e+00  3.54517446e+00  3.54779682e+00  3.55239578e+00
  3.55545590e+00  3.55740412e+00  3.56185994e+00  3.56582812e+00
  3.56995094e+00  3.57427591e+00  3.57729517e+00  3.57785226e+00
  3.58336551e+00  3.58436303e+00  3.58965056e+00  3.59014641e+00
  3.59558164e+00  3.59668443e+00  3.60808128e+00  3.60977788e+00
  3.61671153e+00  3.62012713e+00  3.62321989e+00  3.62564046e+00
  3.62868502e+00  3.63725634e+00  3.64101884e+00  3.64344519e+00
  3.64756064e+00  3.65413386e+00  3.65622132e+00  3.65814275e+00
  3.66190057e+00  3.67103840e+00  3.67662805e+00  3.68004873e+00
  3.68396953e+00  3.68674010e+00  3.69282630e+00  3.69523027e+00
  3.69913591e+00  3.70468526e+00  3.70965853e+00  3.71412914e+00
  3.72123705e+00  3.72308304e+00  3.72565568e+00  3.72800071e+00
  3.73618133e+00  3.74069627e+00  3.74235274e+00  3.74536236e+00
  3.75612398e+00  3.76425924e+00  3.76525038e+00  3.76933439e+00
  3.77450279e+00  3.78207979e+00  3.78619432e+00  3.78967227e+00
  3.79444423e+00  3.80036435e+00  3.80256889e+00  3.80909806e+00
  3.81424566e+00  3.81859357e+00  3.82410801e+00  3.82739631e+00
  3.83066644e+00  3.83307211e+00  3.83954107e+00  3.84294918e+00
  3.84885479e+00  3.85008750e+00  3.85272983e+00  3.85771103e+00
  3.86000350e+00  3.86711612e+00  3.87341977e+00  3.87913313e+00
  3.88183198e+00  3.88861781e+00  3.89201025e+00  3.89842750e+00
  3.90288859e+00  3.90943090e+00  3.91105272e+00  3.91146283e+00
  3.92144047e+00  3.92559762e+00  3.93302233e+00  3.93668503e+00
  3.94312033e+00  3.94471461e+00  3.95108281e+00  3.95747020e+00
  3.96328534e+00  3.97075918e+00  3.97438417e+00  3.98124779e+00
  3.98296719e+00  3.98801416e+00  3.99155732e+00  3.99520210e+00
  3.99993443e+00  4.00406676e+00  4.01279927e+00  4.01605275e+00
  4.02242519e+00  4.03203203e+00  4.03673608e+00  4.04308315e+00
  4.04422565e+00  4.05112971e+00  4.06180838e+00  4.06553575e+00
  4.06934961e+00  4.07277179e+00  4.07443033e+00  4.07882589e+00
  4.08539072e+00  4.08839340e+00  4.09019313e+00  4.10173151e+00
  4.10931405e+00  4.11266688e+00  4.12144112e+00  4.12770674e+00
  4.12865036e+00  4.13493169e+00  4.13761481e+00  4.15012593e+00
  4.15748673e+00  4.16438698e+00  4.16967363e+00  4.17600263e+00
  4.18150725e+00  4.18679816e+00  4.19234783e+00  4.20021648e+00
  4.20825157e+00  4.21337737e+00  4.22152986e+00  4.22387627e+00
  4.23214053e+00  4.23395357e+00  4.23745113e+00  4.24699030e+00
  4.25466186e+00  4.25723460e+00  4.27004936e+00  4.27212687e+00
  4.28308494e+00  4.28900489e+00  4.29349607e+00  4.29785799e+00
  4.30476093e+00  4.31104654e+00  4.31668751e+00  4.32916405e+00
  4.33380642e+00  4.33761937e+00  4.34140843e+00  4.35860351e+00
  4.36598485e+00  4.36730987e+00  4.37996878e+00  4.38265190e+00
  4.38846753e+00  4.39525562e+00  4.40041153e+00  4.41097670e+00
  4.41958389e+00  4.42606010e+00  4.44409632e+00  4.44684218e+00
  4.45056055e+00  4.45182349e+00  4.45448200e+00  4.45975387e+00
  4.47014924e+00  4.47273710e+00  4.47573568e+00  4.48245668e+00
  4.48868337e+00  4.49147333e+00  4.49701112e+00  4.50231213e+00
  4.50591097e+00  4.51727270e+00  4.51978065e+00  4.53316811e+00
  4.53760060e+00  4.54395574e+00  4.55016461e+00  4.55522205e+00
  4.56144594e+00  4.57036630e+00  4.57561397e+00  4.58225513e+00
  4.59177831e+00  4.60255337e+00  4.60866758e+00  4.61199209e+00
  4.62290859e+00  4.63300798e+00  4.63752407e+00  4.64014953e+00
  4.65033497e+00  4.65743528e+00  4.66092942e+00  4.66655014e+00
  4.67449707e+00  4.67882639e+00  4.68793352e+00  4.70262290e+00
  4.70790054e+00  4.71107031e+00  4.71765565e+00  4.72792690e+00
  4.73601050e+00  4.74309144e+00  4.75355498e+00  4.77168274e+00
  4.77451158e+00  4.78299830e+00  4.80025272e+00  4.80258798e+00
  4.82327896e+00  4.83243446e+00  4.83892485e+00  4.85272430e+00
  4.86379402e+00  4.86962920e+00  4.87903786e+00  4.88650549e+00
  4.89066703e+00  4.89557743e+00  4.90573074e+00  4.91713264e+00
  4.92167047e+00  4.92564450e+00  4.93596149e+00  4.94136389e+00
  4.95056778e+00  4.95255100e+00  4.95766624e+00  4.96226936e+00
  4.97682431e+00  4.97729789e+00  4.99551175e+00  5.00781505e+00
  5.01618894e+00  5.02102231e+00  5.03409301e+00  5.04183996e+00
  5.05438352e+00  5.06491070e+00  5.08047469e+00  5.08783887e+00
  5.09580376e+00  5.11007971e+00  5.11580590e+00  5.13907834e+00
  5.14332102e+00  5.15061633e+00  5.16029595e+00  5.17556014e+00
  5.18756695e+00  5.19685230e+00  5.20288511e+00  5.21448755e+00
  5.22169363e+00  5.22638122e+00  5.24018132e+00  5.24537967e+00
  5.25288913e+00  5.25834888e+00  5.26068917e+00  5.26363836e+00
  5.26618152e+00  5.26981514e+00  5.28009318e+00  5.28300011e+00
  5.29725828e+00  5.31166061e+00  5.31367311e+00  5.32094106e+00
  5.33371153e+00  5.33939349e+00  5.34269956e+00  5.34821160e+00
  5.35752905e+00  5.37264039e+00  5.38071283e+00  5.38542523e+00
  5.39357283e+00  5.40249075e+00  5.40677589e+00  5.41480157e+00
  5.41952064e+00  5.42743504e+00  5.43840836e+00  5.44042203e+00
  5.45174014e+00  5.45620947e+00  5.46049796e+00  5.46820416e+00
  5.48519973e+00  5.52411140e+00  5.53270196e+00  5.54801076e+00
  5.54969120e+00  5.56776712e+00  5.57332536e+00  5.58924801e+00
  5.60293039e+00  5.61857888e+00  5.65808791e+00  5.66644292e+00
  5.67902401e+00  5.68246468e+00  5.69852081e+00  5.69970588e+00
  5.74201262e+00  5.74515167e+00  5.76503582e+00  5.77764526e+00
  5.79882884e+00  5.81310630e+00  5.82103732e+00  5.82368796e+00
  5.85612787e+00  5.86327329e+00  5.86778369e+00  5.88166712e+00
  5.92588912e+00  5.93858292e+00  5.94617677e+00  5.99567133e+00
  6.00564149e+00  6.02925453e+00  6.03092405e+00  6.04927875e+00
  6.05591202e+00  6.11150804e+00  6.14229555e+00  6.17189731e+00
  6.18356924e+00  6.19389896e+00  6.21020050e+00  6.27013173e+00
  6.27322856e+00  6.29773607e+00  6.31506103e+00  6.33616957e+00
  6.39968453e+00  6.40739549e+00  6.45293072e+00  6.48316094e+00
  6.50750477e+00  6.51597766e+00  6.52191214e+00  6.52585911e+00
  6.55418815e+00  6.56777214e+00  6.61226692e+00  6.68725676e+00
  6.69610884e+00  6.72049341e+00  6.73448573e+00  6.76896763e+00
  6.77450837e+00  6.82873356e+00  6.83019343e+00  6.83868469e+00
  6.89612012e+00  6.90305317e+00  6.91727752e+00  6.94450016e+00
  6.97187430e+00  6.97631771e+00  6.98772226e+00  7.03492173e+00
  7.15734234e+00  7.17271871e+00  7.18613788e+00  7.21107046e+00
  7.21457275e+00  7.23245541e+00  7.23308726e+00  7.24266171e+00
  7.35237060e+00  7.40261967e+00  2.23711584e+01  2.23744948e+01
  2.24644008e+01  2.24675621e+01  2.24789080e+01  2.25375917e+01
  2.25555025e+01  2.25705426e+01  2.25960079e+01  2.26092160e+01
  2.26501110e+01  2.26977299e+01  2.27199073e+01  2.27300356e+01
  2.27596545e+01  2.27759605e+01  2.27938357e+01  2.28511080e+01
  2.28700429e+01  2.28845075e+01  2.30613830e+01  2.31193757e+01
  2.32410587e+01  2.33149036e+01  2.33224639e+01  2.33724288e+01
  2.33940187e+01  2.34152794e+01  2.34586536e+01  2.34620484e+01
  2.35374165e+01  2.36391750e+01  2.37858605e+01  3.25550823e+01
  3.25943264e+01  3.26964223e+01  3.27361741e+01  4.38220699e+01
  4.38879275e+01  4.39879213e+01  4.40119612e+01  4.40807364e+01
  4.41120650e+01]
nelec by numeric integration = 314.00147824134024
    CPU time for vxc    378.87 sec, wall time     19.36 sec
    CPU time for df vj and vk   2587.88 sec, wall time    147.03 sec
    CPU time for df vj and vk   1942.62 sec, wall time     98.78 sec
E1 = -13530.130226453657  Ecoul = 6388.869595956341  Exc = -273.0696017102309
cycle= 2 E= -1952.24384921339  delta_E= 2.91e-11  |g|= 0.000193  |ddm|= 0.000283
    CPU time for cycle= 2   4920.77 sec, wall time    265.84 sec
  HOMO = -0.27258583127575  LUMO = 0.00668771327036968
  mo_energy =
[-1.92788168e+01 -1.92505058e+01 -1.92205200e+01 -1.92022715e+01
 -1.91601576e+01 -1.91575153e+01 -1.44513904e+01 -1.44344880e+01
 -1.44223687e+01 -1.44159502e+01 -1.04311427e+01 -1.04101276e+01
 -1.03571022e+01 -1.03379408e+01 -1.03269212e+01 -1.03205924e+01
 -1.03125978e+01 -1.03015949e+01 -1.03009285e+01 -1.02974477e+01
 -1.02970009e+01 -1.02939682e+01 -1.02936055e+01 -1.02889060e+01
 -1.02873671e+01 -1.02853111e+01 -1.02845089e+01 -1.02832004e+01
 -1.02817986e+01 -1.02817031e+01 -1.02784604e+01 -1.02780823e+01
 -1.02708493e+01 -1.02672211e+01 -1.02649078e+01 -1.02573239e+01
 -1.02516364e+01 -1.02510302e+01 -1.02468341e+01 -1.02466103e+01
 -1.02455445e+01 -1.02429107e+01 -1.02407841e+01 -1.26948974e+00
 -1.24609515e+00 -1.17373261e+00 -1.15784561e+00 -1.15709219e+00
 -1.14126697e+00 -1.11803547e+00 -1.10317200e+00 -1.09644878e+00
 -1.07546202e+00 -9.76523294e-01 -9.71704587e-01 -9.63244634e-01
 -9.38206556e-01 -9.34940845e-01 -9.28544132e-01 -9.25155439e-01
 -9.11370762e-01 -9.03917514e-01 -8.88223946e-01 -8.75046544e-01
 -8.56316098e-01 -8.43929931e-01 -8.35942950e-01 -8.27165650e-01
 -8.17365984e-01 -8.09899832e-01 -7.96903917e-01 -7.86717095e-01
 -7.67494020e-01 -7.57821005e-01 -7.55115421e-01 -7.40523677e-01
 -7.38318970e-01 -7.22571045e-01 -7.11750075e-01 -6.98099916e-01
 -6.82444675e-01 -6.76245358e-01 -6.68314240e-01 -6.63945707e-01
 -6.58670647e-01 -6.53371251e-01 -6.49342251e-01 -6.47422760e-01
 -6.36049536e-01 -6.30116055e-01 -6.25569813e-01 -6.13998625e-01
 -6.13212326e-01 -6.04917470e-01 -5.98393127e-01 -5.89344703e-01
 -5.84982105e-01 -5.80416268e-01 -5.76859977e-01 -5.71611183e-01
 -5.66122761e-01 -5.62667501e-01 -5.58031305e-01 -5.56539634e-01
 -5.52771253e-01 -5.48520052e-01 -5.46643034e-01 -5.43480592e-01
 -5.36701085e-01 -5.36276912e-01 -5.30888762e-01 -5.29871100e-01
 -5.27657217e-01 -5.25773786e-01 -5.21052507e-01 -5.20370329e-01
 -5.16837386e-01 -5.14994273e-01 -5.11760826e-01 -5.10693064e-01
 -5.04389136e-01 -5.02918417e-01 -4.97784688e-01 -4.97419702e-01
 -4.94707727e-01 -4.90620175e-01 -4.88668920e-01 -4.81497028e-01
 -4.80880079e-01 -4.77657526e-01 -4.74613995e-01 -4.70115844e-01
 -4.68256891e-01 -4.67268933e-01 -4.64629004e-01 -4.61925829e-01
 -4.59825335e-01 -4.58103209e-01 -4.54270567e-01 -4.49252475e-01
 -4.42796841e-01 -4.36850628e-01 -4.34939148e-01 -4.33896639e-01
 -4.21898191e-01 -4.21463790e-01 -4.19011042e-01 -3.98321313e-01
 -3.62612639e-01 -3.58730573e-01 -3.56079557e-01 -3.40740585e-01
 -3.38245897e-01 -3.32790705e-01 -3.21064764e-01 -2.89393228e-01
 -2.72585831e-01  6.68771327e-03  3.19661279e-02  5.88095799e-02
  6.73689802e-02  7.55166623e-02  8.36625609e-02  9.11807523e-02
  9.53318128e-02  1.02295247e-01  1.05326727e-01  1.09426233e-01
  1.15200456e-01  1.17589468e-01  1.21489949e-01  1.23150976e-01
  1.29784078e-01  1.34932879e-01  1.37455694e-01  1.41757801e-01
  1.44674528e-01  1.48141034e-01  1.50384311e-01  1.55093812e-01
  1.59839688e-01  1.60438726e-01  1.65272230e-01  1.66191710e-01
  1.70376280e-01  1.71072077e-01  1.75153016e-01  1.78468766e-01
  1.81193367e-01  1.83333351e-01  1.86638993e-01  1.88908268e-01
  1.94073094e-01  1.95787723e-01  1.98341979e-01  1.98958144e-01
  1.99296555e-01  2.03421044e-01  2.07862547e-01  2.09788194e-01
  2.11829403e-01  2.12591678e-01  2.15893921e-01  2.20977819e-01
  2.22546870e-01  2.25467603e-01  2.28806920e-01  2.31265970e-01
  2.32763090e-01  2.34501207e-01  2.35230959e-01  2.39665772e-01
  2.41563995e-01  2.48059963e-01  2.49020826e-01  2.50088577e-01
  2.52353985e-01  2.56664057e-01  2.59064646e-01  2.61127403e-01
  2.62603713e-01  2.65710841e-01  2.69037668e-01  2.70600207e-01
  2.74990091e-01  2.76406888e-01  2.80664105e-01  2.85638985e-01
  2.87229788e-01  2.90029448e-01  2.94158735e-01  2.95777871e-01
  2.99820106e-01  3.01745119e-01  3.04688882e-01  3.08676249e-01
  3.11449192e-01  3.12783519e-01  3.17367075e-01  3.18197312e-01
  3.18520143e-01  3.23492450e-01  3.28151344e-01  3.29345121e-01
  3.30990636e-01  3.33984808e-01  3.34711511e-01  3.37331661e-01
  3.39415997e-01  3.39522719e-01  3.46342390e-01  3.47471805e-01
  3.51545013e-01  3.54662649e-01  3.55933003e-01  3.58446213e-01
  3.60243268e-01  3.64476880e-01  3.66903724e-01  3.72615231e-01
  3.74534705e-01  3.78792856e-01  3.81833096e-01  3.83345460e-01
  3.84341168e-01  3.89976038e-01  3.90371029e-01  3.91971021e-01
  3.93215313e-01  3.99317033e-01  4.00902072e-01  4.02133275e-01
  4.06006333e-01  4.10812859e-01  4.13641489e-01  4.15528801e-01
  4.17381967e-01  4.20454629e-01  4.22912117e-01  4.25136242e-01
  4.28010446e-01  4.30127787e-01  4.30844173e-01  4.34973049e-01
  4.37595956e-01  4.42111944e-01  4.42307576e-01  4.42750300e-01
  4.45488438e-01  4.49650803e-01  4.50354765e-01  4.58540352e-01
  4.58635499e-01  4.61033697e-01  4.63939670e-01  4.69042711e-01
  4.70028276e-01  4.72229650e-01  4.73210076e-01  4.76505785e-01
  4.77770157e-01  4.79385789e-01  4.83588076e-01  4.84559001e-01
  4.84652434e-01  4.88827165e-01  4.90448731e-01  4.93676298e-01
  4.94867726e-01  4.95814932e-01  4.99378943e-01  4.99613477e-01
  5.00050038e-01  5.03504587e-01  5.05669459e-01  5.08944246e-01
  5.11917102e-01  5.14243890e-01  5.16388432e-01  5.18425632e-01
  5.19863967e-01  5.21610218e-01  5.23386266e-01  5.27045506e-01
  5.29109965e-01  5.29652315e-01  5.32742956e-01  5.33597974e-01
  5.35563412e-01  5.39384858e-01  5.41900115e-01  5.42821349e-01
  5.46675815e-01  5.49168261e-01  5.50610763e-01  5.52586848e-01
  5.54710150e-01  5.56247679e-01  5.57823206e-01  5.62586553e-01
  5.65121874e-01  5.66651651e-01  5.70250505e-01  5.72279068e-01
  5.72969466e-01  5.76120686e-01  5.78536768e-01  5.79681797e-01
  5.80486208e-01  5.83487231e-01  5.84537993e-01  5.87334988e-01
  5.92420362e-01  5.95964698e-01  5.96263731e-01  6.00076612e-01
  6.01903424e-01  6.02951085e-01  6.06395791e-01  6.07228043e-01
  6.08270768e-01  6.11870386e-01  6.12437693e-01  6.18149447e-01
  6.20154035e-01  6.21719812e-01  6.27840472e-01  6.29078224e-01
  6.30695702e-01  6.35400875e-01  6.37285642e-01  6.40636017e-01
  6.42944033e-01  6.44487903e-01  6.46751580e-01  6.50121239e-01
  6.52493568e-01  6.55417658e-01  6.58991956e-01  6.60203376e-01
  6.61870493e-01  6.63804123e-01  6.66725023e-01  6.68427061e-01
  6.77097638e-01  6.78321149e-01  6.80285585e-01  6.84499757e-01
  6.87226124e-01  6.87649404e-01  6.94007383e-01  6.97173379e-01
  7.01255988e-01  7.03774010e-01  7.04119872e-01  7.09142653e-01
  7.11861096e-01  7.14541018e-01  7.16320999e-01  7.19468357e-01
  7.21005559e-01  7.28114382e-01  7.30153789e-01  7.33369464e-01
  7.38644832e-01  7.40243494e-01  7.43734594e-01  7.45806880e-01
  7.49019409e-01  7.50675839e-01  7.52916838e-01  7.55461207e-01
  7.61644985e-01  7.65167331e-01  7.68738717e-01  7.71148118e-01
  7.75651499e-01  7.78313180e-01  7.80442054e-01  7.83451778e-01
  7.87154248e-01  7.91976771e-01  7.93953619e-01  7.97706920e-01
  7.99007749e-01  8.01510668e-01  8.07144796e-01  8.07786508e-01
  8.14020939e-01  8.16278911e-01  8.17179237e-01  8.25086533e-01
  8.31025185e-01  8.31971733e-01  8.36764558e-01  8.38738521e-01
  8.40925134e-01  8.44053874e-01  8.49066874e-01  8.55602002e-01
  8.55896653e-01  8.61899006e-01  8.64935130e-01  8.69924374e-01
  8.74856079e-01  8.77128467e-01  8.82097721e-01  8.89878758e-01
  8.90718477e-01  8.92851861e-01  8.94256442e-01  8.97231246e-01
  9.01538740e-01  9.03379930e-01  9.07792244e-01  9.09978775e-01
  9.12682584e-01  9.19611283e-01  9.21571875e-01  9.25487580e-01
  9.29256595e-01  9.36046968e-01  9.41161283e-01  9.44122589e-01
  9.49123376e-01  9.53886521e-01  9.56588983e-01  9.62046020e-01
  9.64139237e-01  9.66273160e-01  9.68866335e-01  9.76334526e-01
  9.77186516e-01  9.80039752e-01  9.82747974e-01  9.86297869e-01
  9.90020165e-01  9.95193698e-01  9.98092011e-01  1.00025978e+00
  1.00682054e+00  1.00864881e+00  1.01311421e+00  1.01535865e+00
  1.02203846e+00  1.02503499e+00  1.02711133e+00  1.03191660e+00
  1.03579501e+00  1.03964990e+00  1.04810606e+00  1.04840310e+00
  1.05056674e+00  1.05354116e+00  1.05648636e+00  1.06521368e+00
[...]
    CPU time for df vj and vk   1940.15 sec, wall time     98.62 sec
E1 = -13530.130013027967  Ecoul = 6388.8693350867525  Exc = -273.06955427213103
Extra cycle  E= -1952.24384921918  delta_E= -1.82e-12  |g|= 3.07e-06  |ddm|= 4.02e-06
    CPU time for scf_cycle  37567.10 sec, wall time   2164.89 sec
    CPU time for SCF  37567.14 sec, wall time   2164.89 sec
converged SCF energy = -1952.24384921918
SCF Done after 2164.98 seconds
after SCF memory used: 66.29 GB
Converting <class 'pyscf.df.df_jk.density_fit.<locals>.DFHF'> to RHF
Converting <class 'pyscf.df.df_jk.density_fit.<locals>.DFHF'> to RHF
hdiag shape (222312,)
n_occ =  157
n_vir =  1416
max_vir =  373
A_size =  222312
A_reduced_size = 58561
a_x = 0.56
beta = 8.0
alpha = 4.58
Q-Gamma tensors building time = 1.46
after Q matrix memory used: 66.62 GB
TDDFT
|-------- In-house Developed TDDFT Starts ---------|
Residual conv = 1e-05

Number of excited states = 1
Initial guess:   sTDDFT
Preconditioner:  sTDDFT
A matrix size =  222312
setting initial guess
sTDDFT Convergence tol = 1.00e-03
sTDDFT diagonalization Converged
after  8 iterations; 3.9615 seconds
final subspace 17
max_norm =  7.73e-04
MVcost     2.9319s 74.01%
GScost     0.4180s 10.55%
subgencost 0.3975s 10.03%
subcost    0.0054s 0.14%
sTDDFT excitation energy:
[4.17599744 4.29521003]
new_m = 2
initial guess done

iteration 0
beginning of step 0 memory used: 66.89 GB
    CPU time for df vj and vk   5214.57 sec, wall time    289.51 sec
    CPU time for df vj and vk   3911.96 sec, wall time    199.19 sec
subspace size: 2
Maximum residual norm:  8.49e-02
unconverged states [0]
sTDDFT_preconditioner conv 0.01
sTDDFT preconditioning Done
after 21 steps; 5.8133 s
final subspace 21
max_norm =  6.72e-03
initial_cost 0.0203s  0.35%
MVcost     3.3474s  57.58%
GScost     0.7230s  12.44%
subgencost 1.4090s  24.24%
subcost    0.0152s  0.26%
m & new_m 2 3

iteration 1
beginning of step 1 memory used: 66.87 GB
    CPU time for df vj and vk   2599.12 sec, wall time    147.73 sec
    CPU time for df vj and vk   1950.60 sec, wall time     99.62 sec
subspace size: 3
Maximum residual norm:  3.50e-02
unconverged states [0]
sTDDFT_preconditioner conv 0.01
sTDDFT preconditioning Done
after 11 steps; 2.5552 s
final subspace 11
max_norm =  6.35e-03
initial_cost 0.0100s  0.39%
MVcost     1.7846s  69.84%
GScost     0.2119s  8.29%
subgencost 0.4143s  16.21%
subcost    0.0066s  0.26%
m & new_m 3 4

iteration 2
beginning of step 2 memory used: 66.87 GB
    CPU time for df vj and vk   2592.09 sec, wall time    147.47 sec
    CPU time for df vj and vk   1956.00 sec, wall time     99.93 sec
subspace size: 4
Maximum residual norm:  3.89e-02
unconverged states [0]
sTDDFT_preconditioner conv 0.01
sTDDFT preconditioning Done
after 8 steps; 1.7124 s
final subspace 8
max_norm =  9.23e-03
initial_cost 0.0102s  0.60%
MVcost     1.2843s  75.00%
GScost     0.1108s  6.47%
subgencost 0.2186s  12.76%
subcost    0.0043s  0.25%
m & new_m 4 5

iteration 3
beginning of step 3 memory used: 66.87 GB
    CPU time for df vj and vk   2586.71 sec, wall time    147.51 sec
    CPU time for df vj and vk   1949.77 sec, wall time     99.73 sec
subspace size: 5
Maximum residual norm:  2.88e-02
unconverged states [0]
sTDDFT_preconditioner conv 0.01
sTDDFT preconditioning Done
after 8 steps; 1.7677 s
final subspace 8
max_norm =  7.95e-03
initial_cost 0.0102s  0.58%
MVcost     1.3249s  74.95%
GScost     0.1156s  6.54%
subgencost 0.2252s  12.74%
subcost    0.0046s  0.26%
m & new_m 5 6

iteration 4
beginning of step 4 memory used: 66.87 GB
    CPU time for df vj and vk   2595.33 sec, wall time    147.89 sec
    CPU time for df vj and vk   1952.77 sec, wall time     99.96 sec
subspace size: 6
Maximum residual norm:  1.61e-02
unconverged states [0]
sTDDFT_preconditioner conv 0.01
sTDDFT preconditioning Done
after 8 steps; 1.7142 s
final subspace 8
max_norm =  8.66e-03
initial_cost 0.0112s  0.65%
MVcost     1.2773s  74.51%
GScost     0.1120s  6.53%
subgencost 0.2218s  12.94%
subcost    0.0047s  0.27%
m & new_m 6 7

iteration 5
beginning of step 5 memory used: 66.87 GB
    CPU time for df vj and vk   2595.64 sec, wall time    147.53 sec
    CPU time for df vj and vk   1955.77 sec, wall time     99.94 sec
subspace size: 7
Maximum residual norm:  6.12e-03
unconverged states [0]
sTDDFT_preconditioner conv 0.01
sTDDFT preconditioning Done
after 11 steps; 2.5933 s
final subspace 11
max_norm =  7.31e-03
initial_cost 0.0098s  0.38%
MVcost     1.7977s  69.32%
GScost     0.2288s  8.82%
subgencost 0.4103s  15.82%
subcost    0.0066s  0.25%
m & new_m 7 8

iteration 6
beginning of step 6 memory used: 66.87 GB
    CPU time for df vj and vk   2597.25 sec, wall time    147.90 sec
    CPU time for df vj and vk   1949.96 sec, wall time     99.96 sec
subspace size: 8
Maximum residual norm:  2.81e-03
unconverged states [0]
sTDDFT_preconditioner conv 0.01
sTDDFT preconditioning Done
after 11 steps; 2.5527 s
final subspace 11
max_norm =  9.18e-03
initial_cost 0.0097s  0.38%
MVcost     1.7847s  69.92%
GScost     0.2154s  8.44%
subgencost 0.4040s  15.83%
subcost    0.0063s  0.25%
m & new_m 8 9

iteration 7
beginning of step 7 memory used: 66.87 GB
    CPU time for df vj and vk   2595.64 sec, wall time    147.58 sec
    CPU time for df vj and vk   1952.87 sec, wall time     99.88 sec
subspace size: 9
Maximum residual norm:  1.22e-03
unconverged states [0]
sTDDFT_preconditioner conv 0.01
sTDDFT preconditioning Done
after 12 steps; 2.8973 s
final subspace 12
max_norm =  9.22e-03
initial_cost 0.0097s  0.33%
MVcost     2.0013s  69.07%
GScost     0.2523s  8.71%
subgencost 0.4763s  16.44%
subcost    0.0073s  0.25%
m & new_m 9 10

iteration 8
beginning of step 8 memory used: 66.87 GB
    CPU time for df vj and vk   2604.02 sec, wall time    148.15 sec
    CPU time for df vj and vk   1955.78 sec, wall time     99.93 sec
subspace size: 10
Maximum residual norm:  6.20e-04
unconverged states [0]
sTDDFT_preconditioner conv 0.01
sTDDFT preconditioning Done
after 11 steps; 2.5647 s
final subspace 11
max_norm =  9.36e-03
initial_cost 0.0096s  0.37%
MVcost     1.8098s  70.57%
GScost     0.2064s  8.05%
subgencost 0.3976s  15.50%
subcost    0.0066s  0.26%
m & new_m 10 11

iteration 9
beginning of step 9 memory used: 66.89 GB
    CPU time for df vj and vk   2602.29 sec, wall time    147.98 sec
    CPU time for df vj and vk   1955.33 sec, wall time     99.96 sec
subspace size: 11
Maximum residual norm:  2.74e-04
unconverged states [0]
sTDDFT_preconditioner conv 0.01
sTDDFT preconditioning Done
after 11 steps; 2.5922 s
final subspace 11
max_norm =  8.36e-03
initial_cost 0.0096s  0.37%
MVcost     1.8116s  69.89%
GScost     0.2172s  8.38%
subgencost 0.4030s  15.54%
subcost    0.0066s  0.26%
m & new_m 11 12

iteration 10
beginning of step 10 memory used: 66.89 GB
    CPU time for df vj and vk   2596.22 sec, wall time    148.00 sec
    CPU time for df vj and vk   1950.44 sec, wall time     99.83 sec
subspace size: 12
Maximum residual norm:  1.36e-04
unconverged states [0]
sTDDFT_preconditioner conv 0.01
sTDDFT preconditioning Done
after 11 steps; 2.6021 s
final subspace 11
max_norm =  7.57e-03
initial_cost 0.0098s  0.38%
MVcost     1.8219s  70.01%
GScost     0.2187s  8.40%
subgencost 0.4114s  15.81%
subcost    0.0067s  0.26%
m & new_m 12 13

iteration 11
beginning of step 11 memory used: 66.89 GB
    CPU time for df vj and vk   2597.72 sec, wall time    147.36 sec
    CPU time for df vj and vk   1950.05 sec, wall time     99.92 sec
subspace size: 13
Maximum residual norm:  6.15e-05
unconverged states [0]
sTDDFT_preconditioner conv 0.01
sTDDFT preconditioning Done
after 11 steps; 2.5610 s
final subspace 11
max_norm =  7.02e-03
initial_cost 0.0092s  0.36%
MVcost     1.7913s  69.95%
GScost     0.2144s  8.37%
subgencost 0.4064s  15.87%
subcost    0.0065s  0.25%
m & new_m 13 14

iteration 12
beginning of step 12 memory used: 66.89 GB
    CPU time for df vj and vk   2604.66 sec, wall time    147.92 sec
    CPU time for df vj and vk   1951.45 sec, wall time     99.82 sec
subspace size: 14
Maximum residual norm:  3.97e-05
unconverged states [0]
sTDDFT_preconditioner conv 0.01
sTDDFT preconditioning Done
after 11 steps; 2.5721 s
final subspace 11
max_norm =  9.53e-03
initial_cost 0.0091s  0.35%
MVcost     1.7923s  69.68%
GScost     0.2136s  8.31%
subgencost 0.4147s  16.12%
subcost    0.0067s  0.26%
m & new_m 14 15

iteration 13
beginning of step 13 memory used: 66.90 GB
    CPU time for df vj and vk   2598.75 sec, wall time    147.78 sec
    CPU time for df vj and vk   1955.56 sec, wall time     99.99 sec
subspace size: 15
Maximum residual norm:  2.23e-05
unconverged states [0]
sTDDFT_preconditioner conv 0.01
sTDDFT preconditioning Done
after 11 steps; 2.5511 s
final subspace 11
max_norm =  6.46e-03
initial_cost 0.0092s  0.36%
MVcost     1.8098s  70.94%
GScost     0.2028s  7.95%
subgencost 0.3958s  15.51%
subcost    0.0066s  0.26%
m & new_m 15 16

iteration 14
beginning of step 14 memory used: 66.90 GB
    CPU time for df vj and vk   2593.30 sec, wall time    147.59 sec
    CPU time for df vj and vk   1948.40 sec, wall time     99.83 sec
subspace size: 16
Maximum residual norm:  8.63e-06
TDDFT precedure Done

============= TDDFT Calculation Done ==============
after 15 iterations 4432.64 s
Final subspace  16
preconditioning cost 37.1802 0.01 %
max_norm =  8.63e-06
Total TDDFT memory used: 66.93 GB
Excited State energies (eV) =
 [4.19199758]

Number of excited states = 1
Initial guess:   Adiag
Preconditioner:  Adiag
A matrix size =  222312
new_m = 2
initial guess done

iteration 0
beginning of step 0 memory used: 66.93 GB
    CPU time for df vj and vk   5201.81 sec, wall time    289.46 sec
    CPU time for df vj and vk   3904.21 sec, wall time    199.11 sec
subspace size: 2
Maximum residual norm:  5.39e-02
unconverged states [0]
m & new_m 2 3

iteration 1
beginning of step 1 memory used: 66.91 GB
    CPU time for df vj and vk   2594.48 sec, wall time    148.07 sec
    CPU time for df vj and vk   1956.63 sec, wall time    100.06 sec
subspace size: 3
Maximum residual norm:  2.88e-02
unconverged states [0]
m & new_m 3 4

iteration 2
beginning of step 2 memory used: 66.91 GB
    CPU time for df vj and vk   2595.80 sec, wall time    147.91 sec
    CPU time for df vj and vk   1953.08 sec, wall time     99.98 sec
subspace size: 4
Maximum residual norm:  1.76e-02
unconverged states [0]
m & new_m 4 5

iteration 3
beginning of step 3 memory used: 66.91 GB
    CPU time for df vj and vk   2602.84 sec, wall time    148.30 sec
    CPU time for df vj and vk   1953.89 sec, wall time     99.87 sec
subspace size: 5
Maximum residual norm:  1.26e-02
unconverged states [0]
m & new_m 5 6

iteration 4
beginning of step 4 memory used: 66.91 GB
    CPU time for df vj and vk   2597.58 sec, wall time    147.84 sec
    CPU time for df vj and vk   1955.65 sec, wall time     99.89 sec
subspace size: 6
Maximum residual norm:  1.06e-02
unconverged states [0]
m & new_m 6 7

iteration 5
beginning of step 5 memory used: 66.91 GB
    CPU time for df vj and vk   2601.85 sec, wall time    148.23 sec
    CPU time for df vj and vk   1955.16 sec, wall time     99.93 sec
subspace size: 7
Maximum residual norm:  9.60e-03
unconverged states [0]
m & new_m 7 8

iteration 6
beginning of step 6 memory used: 66.91 GB
    CPU time for df vj and vk   2590.80 sec, wall time    147.11 sec
    CPU time for df vj and vk   1953.24 sec, wall time     99.85 sec
subspace size: 8
Maximum residual norm:  1.06e-02
unconverged states [0]
m & new_m 8 9

iteration 7
beginning of step 7 memory used: 66.91 GB
    CPU time for df vj and vk   2594.01 sec, wall time    147.93 sec
    CPU time for df vj and vk   1953.00 sec, wall time     99.86 sec
subspace size: 9
Maximum residual norm:  1.47e-02
unconverged states [0]
m & new_m 9 10

iteration 8
beginning of step 8 memory used: 66.91 GB
    CPU time for df vj and vk   2597.72 sec, wall time    147.85 sec
    CPU time for df vj and vk   1955.67 sec, wall time    100.11 sec
subspace size: 10
Maximum residual norm:  2.57e-02
unconverged states [0]
m & new_m 10 11

iteration 9
beginning of step 9 memory used: 66.91 GB
    CPU time for df vj and vk   2593.55 sec, wall time    147.93 sec
    CPU time for df vj and vk   1953.65 sec, wall time     99.87 sec
subspace size: 11
Maximum residual norm:  2.49e-02
unconverged states [0]
m & new_m 11 12

iteration 10
beginning of step 10 memory used: 66.91 GB
    CPU time for df vj and vk   2597.52 sec, wall time    147.60 sec
    CPU time for df vj and vk   1955.84 sec, wall time     99.92 sec
subspace size: 12
Maximum residual norm:  2.28e-02
unconverged states [0]
m & new_m 12 13

iteration 11
beginning of step 11 memory used: 66.91 GB
    CPU time for df vj and vk   2602.35 sec, wall time    147.99 sec
    CPU time for df vj and vk   1957.40 sec, wall time     99.97 sec
subspace size: 13
Maximum residual norm:  1.31e-02
unconverged states [0]
m & new_m 13 14

iteration 12
beginning of step 12 memory used: 66.91 GB
    CPU time for df vj and vk   2587.01 sec, wall time    147.55 sec
    CPU time for df vj and vk   1954.17 sec, wall time     99.90 sec
subspace size: 14
Maximum residual norm:  8.43e-03
unconverged states [0]
m & new_m 14 15

iteration 13
beginning of step 13 memory used: 66.92 GB
    CPU time for df vj and vk   2595.84 sec, wall time    148.16 sec
    CPU time for df vj and vk   1953.35 sec, wall time     99.82 sec
subspace size: 15
Maximum residual norm:  4.74e-03
unconverged states [0]
m & new_m 15 16

iteration 14
beginning of step 14 memory used: 66.92 GB
    CPU time for df vj and vk   2597.92 sec, wall time    147.77 sec
    CPU time for df vj and vk   1955.04 sec, wall time     99.87 sec
subspace size: 16
Maximum residual norm:  2.63e-03
unconverged states [0]
m & new_m 16 17

iteration 15
beginning of step 15 memory used: 66.92 GB
    CPU time for df vj and vk   2598.65 sec, wall time    147.69 sec
    CPU time for df vj and vk   1956.18 sec, wall time     99.89 sec
subspace size: 17
Maximum residual norm:  1.70e-03
unconverged states [0]
m & new_m 17 18

iteration 16
beginning of step 16 memory used: 66.93 GB
    CPU time for df vj and vk   2590.13 sec, wall time    147.53 sec
    CPU time for df vj and vk   1954.12 sec, wall time     99.77 sec
subspace size: 18
Maximum residual norm:  1.03e-03
unconverged states [0]
m & new_m 18 19

iteration 17
beginning of step 17 memory used: 66.93 GB
    CPU time for df vj and vk   2593.66 sec, wall time    147.79 sec
    CPU time for df vj and vk   1956.69 sec, wall time     99.88 sec
subspace size: 19
Maximum residual norm:  7.44e-04
unconverged states [0]
m & new_m 19 20

iteration 18
beginning of step 18 memory used: 66.91 GB
    CPU time for df vj and vk   2592.92 sec, wall time    147.82 sec
    CPU time for df vj and vk   1954.45 sec, wall time     99.87 sec
subspace size: 20
Maximum residual norm:  5.36e-04
unconverged states [0]
m & new_m 20 21

iteration 19
beginning of step 19 memory used: 66.91 GB
    CPU time for df vj and vk   2585.79 sec, wall time    147.70 sec
    CPU time for df vj and vk   1950.67 sec, wall time     99.71 sec
subspace size: 21
Maximum residual norm:  4.90e-04
unconverged states [0]
m & new_m 21 22

iteration 20
beginning of step 20 memory used: 66.91 GB
    CPU time for df vj and vk   2592.08 sec, wall time    147.61 sec
    CPU time for df vj and vk   1953.01 sec, wall time     99.81 sec
subspace size: 22
Maximum residual norm:  4.62e-04
unconverged states [0]
m & new_m 22 23

iteration 21
beginning of step 21 memory used: 66.91 GB
    CPU time for df vj and vk   2594.67 sec, wall time    147.83 sec
    CPU time for df vj and vk   1953.02 sec, wall time     99.88 sec
subspace size: 23
Maximum residual norm:  5.07e-04
unconverged states [0]
m & new_m 23 24

iteration 22
beginning of step 22 memory used: 66.91 GB
    CPU time for df vj and vk   2597.64 sec, wall time    147.54 sec
    CPU time for df vj and vk   1955.74 sec, wall time     99.94 sec
subspace size: 24
Maximum residual norm:  4.52e-04
unconverged states [0]
m & new_m 24 25

iteration 23
beginning of step 23 memory used: 66.91 GB
    CPU time for df vj and vk   2597.16 sec, wall time    147.62 sec
    CPU time for df vj and vk   1955.88 sec, wall time     99.92 sec
subspace size: 25
Maximum residual norm:  3.89e-04
unconverged states [0]
m & new_m 25 26

iteration 24
beginning of step 24 memory used: 66.91 GB
    CPU time for df vj and vk   2596.42 sec, wall time    147.67 sec
    CPU time for df vj and vk   1955.43 sec, wall time     99.95 sec
subspace size: 26
Maximum residual norm:  3.78e-04
unconverged states [0]
m & new_m 26 27

iteration 25
beginning of step 25 memory used: 66.91 GB
    CPU time for df vj and vk   2597.68 sec, wall time    147.79 sec
    CPU time for df vj and vk   1951.88 sec, wall time     99.89 sec
subspace size: 27
Maximum residual norm:  3.52e-04
unconverged states [0]
m & new_m 27 28

iteration 26
beginning of step 26 memory used: 66.91 GB
    CPU time for df vj and vk   2590.68 sec, wall time    147.71 sec
    CPU time for df vj and vk   1952.81 sec, wall time     99.81 sec
subspace size: 28
Maximum residual norm:  3.29e-04
unconverged states [0]
m & new_m 28 29

iteration 27
beginning of step 27 memory used: 66.91 GB
    CPU time for df vj and vk   2586.98 sec, wall time    147.40 sec
    CPU time for df vj and vk   1952.83 sec, wall time     99.83 sec
subspace size: 29
Maximum residual norm:  2.35e-04
unconverged states [0]
m & new_m 29 30

iteration 28
beginning of step 28 memory used: 66.91 GB
    CPU time for df vj and vk   2594.66 sec, wall time    147.92 sec
    CPU time for df vj and vk   1952.47 sec, wall time     99.83 sec
subspace size: 30
Maximum residual norm:  1.58e-04
unconverged states [0]
m & new_m 30 31

iteration 29
beginning of step 29 memory used: 66.91 GB
    CPU time for df vj and vk   2588.24 sec, wall time    147.65 sec
    CPU time for df vj and vk   1951.19 sec, wall time     99.73 sec
subspace size: 31
Maximum residual norm:  8.17e-05
unconverged states [0]
m & new_m 31 32

iteration 30
beginning of step 30 memory used: 66.91 GB
    CPU time for df vj and vk   2600.00 sec, wall time    148.00 sec
    CPU time for df vj and vk   1953.94 sec, wall time     99.89 sec
subspace size: 32
Maximum residual norm:  4.01e-05
unconverged states [0]
m & new_m 32 33

iteration 31
beginning of step 31 memory used: 66.91 GB
    CPU time for df vj and vk   2604.26 sec, wall time    148.29 sec
    CPU time for df vj and vk   1959.49 sec, wall time    100.06 sec
subspace size: 33
Maximum residual norm:  2.06e-05
unconverged states [0]
m & new_m 33 34

iteration 32
beginning of step 32 memory used: 66.91 GB
    CPU time for df vj and vk   2593.21 sec, wall time    147.72 sec
    CPU time for df vj and vk   1956.48 sec, wall time    100.06 sec
subspace size: 34
Maximum residual norm:  1.01e-05
unconverged states [0]
m & new_m 34 35

iteration 33
beginning of step 33 memory used: 66.91 GB
    CPU time for df vj and vk   2595.73 sec, wall time    147.65 sec
    CPU time for df vj and vk   1954.34 sec, wall time     99.77 sec
subspace size: 35
Maximum residual norm:  6.52e-06
TDDFT precedure Done

============= TDDFT Calculation Done ==============
after 34 iterations 9635.68 s
Final subspace  35
preconditioning cost 0.1935 0.00 %
max_norm =  6.52e-06
Total TDDFT memory used: 66.91 GB
Excited State energies (eV) =
 [4.19199757]
xyzfile = 83_Dinoflagellate_luciferin.xyz
checkfile = True
method = RKS
functional = wb97x
basis_set = def2-tzvp
density_fit = True
grid_level = 3
nstates = 1
pytd = False
TDA = False
TDDFT = True
dynpol = False
dynpol_omega = []
stapol = False
sTDA = False
sTDDFT = False
Truncate_test = False
truncate_virtual = 40.0
ip_options = [0, 1]
conv_tolerance = 1e-05
initial_TOL = 0.001
precond_TOL = 0.01
extrainitial = 8
max = 35
eigensolver_tol = 1e-05
memory = 160000
verbose = 5
beta = []
alpha = []
|-------- In-house Developed TDDFT Ends ----------|
