curpath /scratch/pbsjobs/job.16219488.hpc
lib.num_threads() =  20
at beginning memory used: 0.05 GB
mol.max_memory 50000


System: uname_result(system='Linux', node='compt244', release='3.10.0-1127.el7.x86_64', version='#1 SMP Tue Feb 18 16:39:12 EST 2020', machine='x86_64', processor='x86_64')  Threads 20
Python 3.7.0 (default, Aug 23 2018, 14:24:33) 
[GCC 6.3.0]
numpy 1.18.1  scipy 1.4.1
Date: Mon Aug 30 15:49:28 2021
PySCF version 1.7.4
PySCF path  /home/zzz6/.local/lib/python3.7/site-packages/pyscf

[CONFIG] conf_file None
[INPUT] verbose = 5
[INPUT] max_memory = 50000 
[INPUT] num. atoms = 36
[INPUT] num. electrons = 160
[INPUT] charge = 0
[INPUT] spin (= nelec alpha-beta = 2S) = 0
[INPUT] symmetry False subgroup None
[INPUT] Mole.unit = angstrom
[INPUT]  1 C     -1.928637735402   2.412551697923  -0.065322077045 AA   -3.644597113411   4.559061970429  -0.123440835503 Bohr
[INPUT]  2 C     -1.200387553371   1.086099618675  -0.062377049633 AA   -2.268403719208   2.052430823290  -0.117875540264 Bohr
[INPUT]  3 C     -1.904642249648  -0.150495152307  -0.084536845656 AA   -3.599252217111  -0.284394620936  -0.159751485725 Bohr
[INPUT]  4 N     -3.288368778747  -0.160442105974  -0.091712139103 AA   -6.214116388402  -0.303191639138  -0.173310825202 Bohr
[INPUT]  5 C     -4.037908810511   1.080552203179  -0.284412556591 AA   -7.630541767833   2.041947727303  -0.537461838344 Bohr
[INPUT]  6 C     -3.363646236270   2.244744444009   0.438239812140 AA   -6.356370166474   4.241952218815   0.828153221826 Bohr
[INPUT]  7 C      0.198875958118   1.059798137040  -0.036896424872 AA    0.375821093604   2.002728226330  -0.069724137984 Bohr
[INPUT]  8 C      0.947794643397  -0.146537731788  -0.018818559919 AA    1.791072298350  -0.276916179994  -0.035561924305 Bohr
[INPUT]  9 C      0.215991476300  -1.359202344389  -0.036145429506 AA    0.408164735447  -2.568520178762  -0.068304962422 Bohr
[INPUT] 10 C     -1.170817418072  -1.386091126483  -0.076843980175 AA   -2.212524262027  -2.619332612743  -0.145214076853 Bohr
[INPUT] 11 C      2.381450413703  -0.023173380703   0.015524630730 AA    4.500289061131  -0.043791342910   0.029337300265 Bohr
[INPUT] 12 C      2.988324852281   1.205502666828   0.028953632035 AA    5.647115542043   2.278069882737   0.054714434857 Bohr
[INPUT] 13 C      2.221429587584   2.439414242421   0.010235705978 AA    4.197893525539   4.609824822539   0.019342680990 Bohr
[INPUT] 14 O      0.820742040671   2.277536700058  -0.027093158438 AA    1.550977675784   4.303920601756  -0.051198649297 Bohr
[INPUT] 15 C     -4.038020814019  -1.406383056419  -0.240411679296 AA   -7.630753423789  -2.657678802861  -0.454312231016 Bohr
[INPUT] 16 C     -3.321943910310  -2.568563312296   0.443347414344 AA   -6.277564191653  -4.853881193844   0.837805191144 Bohr
[INPUT] 17 C     -1.911903375378  -2.706964252070  -0.134930652875 AA   -3.612973756096  -5.115421065401  -0.254981979742 Bohr
[INPUT] 18 C      3.240937766877  -1.270088365767   0.038382852251 AA    6.124484766157  -2.400119165295   0.072533078634 Bohr
[INPUT] 19 O      2.653912411086   3.571057329666   0.022500204955 AA    5.015167615537   6.748320328189   0.042519225111 Bohr
[INPUT] 20 H     -5.035358554033  -1.245623250742   0.205744852763 AA   -9.515448606108  -2.353886798292   0.388801423260 Bohr
[INPUT] 21 H     -4.199442800048  -1.639391664164  -1.316236781061 AA   -7.935796767868  -3.098001256165  -2.487327031284 Bohr
[INPUT] 22 H      0.754338123190  -2.310399129173  -0.024312014466 AA    1.425492458148  -4.366021592570  -0.045943048878 Bohr
[INPUT] 23 H      4.073685881351   1.311346617474   0.055910329142 AA    7.698150633262   2.478085961401   0.105655209613 Bohr
[INPUT] 24 F      3.020338289331  -2.043165509035  -1.055509212931 AA    5.707612170373  -3.861023239234  -1.994623334394 Bohr
[INPUT] 25 F      4.559682776223  -0.987772859895   0.068673459515 AA    8.616551661958  -1.866620178479   0.129774030510 Bohr
[INPUT] 26 F      2.969273666325  -2.038595235702   1.123927940497 AA    5.611114018238  -3.852386674320   2.123915991286 Bohr
[INPUT] 27 H     -4.139089650385   1.309040385502  -1.368151112198 AA   -7.821745844249   2.473727814594  -2.585430899074 Bohr
[INPUT] 28 H     -5.056552121833   0.913728503777   0.106860755332 AA   -9.555498644853   1.726696624346   0.201937561043 Bohr
[INPUT] 29 H     -1.337404982021  -3.481506748868   0.401552788411 AA   -2.527329133649  -6.579094256186   0.758824794652 Bohr
[INPUT] 30 H     -1.985091902004  -3.044941151684  -1.188314216538 AA   -3.751280026879  -5.754104842101  -2.245588419184 Bohr
[INPUT] 31 H     -3.269038267401  -2.372912694554   1.530002720085 AA   -6.177587016111  -4.484155110211   2.891286110801 Bohr
[INPUT] 32 H     -3.903545579246  -3.494796257813   0.297458900975 AA   -7.376632059531  -6.604207788421   0.562115856157 Bohr
[INPUT] 33 H     -3.946622127213   3.167286336806   0.276475517671 AA   -7.458034937582   5.985303734641   0.522463008546 Bohr
[INPUT] 34 H     -3.361449866332   2.037495683229   1.523984289997 AA   -6.352219628823   3.850308821287   2.879912926234 Bohr
[INPUT] 35 H     -1.371773371513   3.138277114440   0.549587543389 AA   -2.592275977131   5.930484249282   1.038569938477 Bohr
[INPUT] 36 H     -1.934667782678   2.829944648799  -1.091813459909 AA   -3.655992251281   5.347820333908  -2.063228418341 Bohr
[INPUT] ---------------- BASIS SET ---------------- 
[INPUT] l, kappa, [nprim/nctr], expnt,             c_1 c_2 ...
[INPUT] N
[INPUT] 0    0    [6    /1   ]  19730.800647      0.00021887984991
                                2957.8958745      0.0016960708803
                                673.22133595      0.0087954603538
                                190.68249494      0.035359382605
                                62.295441898      0.11095789217
                                22.654161182      0.24982972552
[INPUT] 0    0    [2    /1   ]  8.9791477428      0.40623896148
                                3.686300237       0.24338217176
[INPUT] 0    0    [1    /1   ]  0.84660076805        1
[INPUT] 0    0    [1    /1   ]  0.33647133771        1
[INPUT] 0    0    [1    /1   ]  0.13647653675        1
[INPUT] 1    0    [4    /1   ]  49.20038051       0.0055552416751
                                11.346790537      0.038052379723
                                3.4273972411      0.14953671029
                                1.1785525134      0.3494930523
[INPUT] 1    0    [1    /1   ]  0.41642204972        1
[INPUT] 1    0    [1    /1   ]  0.14260826011        1
[INPUT] 2    0    [1    /1   ]  1.654                1
[INPUT] 2    0    [1    /1   ]  0.469                1
[INPUT] 3    0    [1    /1   ]  1.093                1
[INPUT] F
[INPUT] 0    0    [6    /1   ]  35479.100441      0.00021545014888
                                5318.4728983      0.0016700686527
                                1210.4810975      0.0086733211476
                                342.8551814       0.035049933175
                                112.01943181      0.11165320133
                                40.714740248      0.25988506647
[INPUT] 0    0    [2    /1   ]  16.039678111      0.3942296688
                                6.503818674       0.24998238551
[INPUT] 0    0    [1    /1   ]  1.5440477509         1
[INPUT] 0    0    [1    /1   ]  0.61223452862        1
[INPUT] 0    0    [1    /1   ]  0.24027979698        1
[INPUT] 1    0    [4    /1   ]  80.233900483      0.0063685999134
                                18.594010743      0.04430314353
                                5.6867902653      0.16867248708
                                1.9511006294      0.36166346255
[INPUT] 1    0    [1    /1   ]  0.66970211298        1
[INPUT] 1    0    [1    /1   ]  0.2165130041         1
[INPUT] 2    0    [1    /1   ]  3.107                1
[INPUT] 2    0    [1    /1   ]  0.855                1
[INPUT] 3    0    [1    /1   ]  1.917                1
[INPUT] C
[INPUT] 0    0    [6    /1   ]  13575.349682      0.00022245814352
                                2035.233368       0.0017232738252
                                463.22562359      0.0089255715314
                                131.20019598      0.035727984502
                                42.853015891      0.11076259931
                                15.584185766      0.24295627626
[INPUT] 0    0    [2    /1   ]  6.2067138508      0.41440263448
                                2.5764896527      0.23744968655
[INPUT] 0    0    [1    /1   ]  0.57696339419        1
[INPUT] 0    0    [1    /1   ]  0.22972831358        1
[INPUT] 0    0    [1    /1   ]  0.095164440028       1
[INPUT] 1    0    [4    /1   ]  34.697232244      0.0053333657805
                                7.9582622826      0.035864109092
                                2.3780826883      0.14215873329
                                0.81433208183     0.34270471845
[INPUT] 1    0    [1    /1   ]  0.28887547253        1
[INPUT] 1    0    [1    /1   ]  0.10056823671        1
[INPUT] 2    0    [1    /1   ]  1.097                1
[INPUT] 2    0    [1    /1   ]  0.318                1
[INPUT] 3    0    [1    /1   ]  0.761                1
[INPUT] O
[INPUT] 0    0    [6    /1   ]  27032.382631      0.00021726302465
                                4052.3871392      0.0016838662199
                                922.3272271       0.0087395616265
                                261.24070989      0.035239968808
                                85.354641351      0.11153519115
                                31.035035245      0.25588953961
[INPUT] 0    0    [2    /1   ]  12.260860728      0.39768730901
                                4.9987076005      0.2462784943
[INPUT] 0    0    [1    /1   ]  1.1703108158         1
[INPUT] 0    0    [1    /1   ]  0.46474740994        1
[INPUT] 0    0    [1    /1   ]  0.18504536357        1
[INPUT] 1    0    [4    /1   ]  63.274954801      0.0060685103418
                                14.627049379      0.041912575824
                                4.4501223456      0.16153841088
                                1.5275799647      0.35706951311
[INPUT] 1    0    [1    /1   ]  0.52935117943        1
[INPUT] 1    0    [1    /1   ]  0.1747842127         1
[INPUT] 2    0    [1    /1   ]  2.314                1
[INPUT] 2    0    [1    /1   ]  0.645                1
[INPUT] 3    0    [1    /1   ]  1.428                1
[INPUT] H
[INPUT] 0    0    [3    /1   ]  34.061341         0.0060251978
                                5.1235746         0.045021094
                                1.1646626         0.20189726
[INPUT] 0    0    [1    /1   ]  0.32723041           1
[INPUT] 0    0    [1    /1   ]  0.10307241           1
[INPUT] 1    0    [1    /1   ]  0.8                  1

nuclear repulsion = 1866.32521598388
number of shells = 298
number of NR pGTOs = 1124
number of NR cGTOs = 766
basis = def2-tzvp
ecp = {}
CPU time:         2.30
RKS
Density fitting turned on
Molecule built
Calculating SCF Energy...


******** <class 'pyscf.df.df_jk.density_fit.<locals>.DFHF'> ********
method = DFHF-RKS-RHF
initial guess = chkfile
damping factor = 0
level_shift factor = 0
DIIS = <class 'pyscf.scf.diis.CDIIS'>
diis_start_cycle = 1
diis_space = 8
SCF conv_tol = 1e-10
SCF conv_tol_grad = None
SCF max_cycles = 50
direct_scf = True
direct_scf_tol = 1e-13
chkfile to save SCF result = 36_Coumarin_153_wb97x.chk
max_memory 50000 MB (current use 55 MB)
XC functionals = wb97x
small_rho_cutoff = 1e-07
radial grids: 
    Treutler-Ahlrichs [JCP 102, 346 (1995); DOI:10.1063/1.469408] (M4) radial grids
    
becke partition: Becke, JCP 88, 2547 (1988); DOI:10.1063/1.454033
pruning grids: <function nwchem_prune at 0x7fd50ce53e18>
grids dens level: 3
symmetrized grids: False
atomic radii adjust function: <function treutler_atomic_radii_adjust at 0x7fd50ce53d90>
Set gradient conv threshold to 1e-05
atom C rad-grids = 75, ang-grids = [ 50  50  50  50  50  50  50  50  50  50  50  50  50  50  50  50  50  50
  50  50  50  50  50  86  86  86  86  86  86  86  86  86  86 266 266 266
 266 266 266 266 302 302 302 302 302 302 302 302 302 302 302 302 302 302
 302 302 302 302 302 302 266 266 266 266 266 266 266 266 266 266 266 266
 266 266 266]
atom N rad-grids = 75, ang-grids = [ 50  50  50  50  50  50  50  50  50  50  50  50  50  50  50  50  50  50
  50  50  50  50  50  86  86  86  86  86  86  86  86  86 266 266 266 266
 266 266 266 302 302 302 302 302 302 302 302 302 302 302 302 302 302 302
 302 302 302 302 266 266 266 266 266 266 266 266 266 266 266 266 266 266
 266 266 266]
atom O rad-grids = 75, ang-grids = [ 50  50  50  50  50  50  50  50  50  50  50  50  50  50  50  50  50  50
  50  50  50  50  86  86  86  86  86  86  86  86  86 266 266 266 266 266
 266 266 302 302 302 302 302 302 302 302 302 302 302 302 302 302 302 302
 302 302 302 266 266 266 266 266 266 266 266 266 266 266 266 266 266 266
 266 266 266]
atom H rad-grids = 50, ang-grids = [ 50  50  50  50  50  50  50  50  50  50  50  50  50  50  86  86  86  86
 266 266 266 266 302 302 302 302 302 302 302 302 302 302 302 302 302 266
 266 266 266 266 266 266 266 266 266 266 266 266 266 266]
atom F rad-grids = 75, ang-grids = [ 50  50  50  50  50  50  50  50  50  50  50  50  50  50  50  50  50  50
  50  50  50  86  86  86  86  86  86  86  86  86 266 266 266 266 266 266
 302 302 302 302 302 302 302 302 302 302 302 302 302 302 302 302 302 302
 266 266 266 266 266 266 266 266 266 266 266 266 266 266 266 266 266 266
 266 266 266]
tot grids = 448664
Drop grids 82982
    CPU time for setting up grids     46.20 sec, wall time      2.58 sec
nelec by numeric integration = 159.9999177482829
    CPU time for vxc     82.30 sec, wall time      4.84 sec
******** <class 'pyscf.df.df.DF'> ********
auxbasis = None
max_memory = 50000
_cderi_to_save = /tmp/job.16219488.hpc/tmpor0_1c8c
Default auxbasis def2-tzvp-jkfit is used for N def2-tzvp
Default auxbasis def2-tzvp-jkfit is used for F def2-tzvp
Default auxbasis def2-tzvp-jkfit is used for C def2-tzvp
Default auxbasis def2-tzvp-jkfit is used for O def2-tzvp
Default auxbasis def2-tzvp-jkfit is used for H def2-tzvp
num shells = 634, num cGTOs = 1914
size of aux basis 1914
int3c2e [1/1], AO [0:298], nrow = 293761
    CPU time for cholesky_eri     82.54 sec, wall time     13.40 sec
    CPU time for df vj and vk    219.37 sec, wall time     22.73 sec
Create RSH-DF object <pyscf.df.df.DF object at 0x7fd50a6154e0> for omega=0.3
******** <class 'pyscf.df.df.DF'> ********
auxbasis = None
max_memory = 50000
_cderi_to_save = /tmp/job.16219488.hpc/tmph3_odzja
Default auxbasis def2-tzvp-jkfit is used for N def2-tzvp
Default auxbasis def2-tzvp-jkfit is used for F def2-tzvp
Default auxbasis def2-tzvp-jkfit is used for C def2-tzvp
Default auxbasis def2-tzvp-jkfit is used for O def2-tzvp
Default auxbasis def2-tzvp-jkfit is used for H def2-tzvp
num shells = 634, num cGTOs = 1914
size of aux basis 1469
int3c2e [1/1], AO [0:298], nrow = 293761
    CPU time for cholesky_eri    107.04 sec, wall time      7.95 sec
    CPU time for df vj and vk    210.47 sec, wall time     13.95 sec
E1 = -5245.412173600762  Ecoul = 2403.496595525287  Exc = -147.47165062223615
init E= -1123.06201271383
cond(S) = 3234380.581757775
    CPU time for initialize scf    564.54 sec, wall time     44.69 sec
  HOMO = -0.285546962474756  LUMO = -0.00713255369125044
  mo_energy =
[-2.47845290e+01 -2.47819998e+01 -2.47819839e+01 -1.92616132e+01
 -1.91812538e+01 -1.44294493e+01 -1.05281517e+01 -1.04005775e+01
 -1.03462475e+01 -1.03287773e+01 -1.03281010e+01 -1.03097830e+01
 -1.03076105e+01 -1.02916947e+01 -1.02866476e+01 -1.02823707e+01
 -1.02793207e+01 -1.02766569e+01 -1.02764592e+01 -1.02763230e+01
 -1.02724483e+01 -1.02704459e+01 -1.44806343e+00 -1.36054551e+00
 -1.35712382e+00 -1.24171095e+00 -1.15735426e+00 -1.10477685e+00
 -1.01045918e+00 -9.78715807e-01 -9.68747877e-01 -9.17380280e-01
 -8.99580671e-01 -8.96729278e-01 -8.65068012e-01 -8.25790551e-01
 -8.02870981e-01 -7.89349938e-01 -7.67765272e-01 -7.65868582e-01
 -7.31308701e-01 -7.20366843e-01 -7.17729746e-01 -6.97072114e-01
 -6.74684556e-01 -6.57886706e-01 -6.42370027e-01 -6.38485289e-01
 -6.13187593e-01 -5.99049317e-01 -5.97698195e-01 -5.92486336e-01
 -5.87776850e-01 -5.87474536e-01 -5.73016341e-01 -5.70891136e-01
 -5.56119288e-01 -5.53138766e-01 -5.51480066e-01 -5.41645153e-01
 -5.37863026e-01 -5.34224103e-01 -5.28829407e-01 -5.27512121e-01
 -5.19891662e-01 -5.17862932e-01 -5.11427975e-01 -4.90593786e-01
 -4.74722146e-01 -4.67887836e-01 -4.64437681e-01 -4.55094413e-01
 -4.53785080e-01 -4.45555548e-01 -4.32255219e-01 -4.26657604e-01
 -3.91295741e-01 -3.77972584e-01 -3.30697857e-01 -2.85546962e-01
 -7.13255369e-03  5.91981947e-02  6.97094854e-02  1.00258127e-01
  1.18841665e-01  1.32657821e-01  1.33185391e-01  1.43631413e-01
  1.51088612e-01  1.59460376e-01  1.61120601e-01  1.66517124e-01
  1.77184791e-01  1.80472784e-01  1.82820389e-01  1.90369509e-01
  1.93797305e-01  2.05002171e-01  2.07579725e-01  2.13436642e-01
  2.16620777e-01  2.21102226e-01  2.22793046e-01  2.30859470e-01
  2.34776263e-01  2.38757580e-01  2.52536332e-01  2.58356986e-01
  2.62168919e-01  2.64209326e-01  2.69401440e-01  2.72132126e-01
  2.75975086e-01  2.80281533e-01  2.83355504e-01  2.90159224e-01
  2.94627377e-01  2.98582236e-01  3.07403459e-01  3.13884070e-01
  3.15833559e-01  3.24263544e-01  3.26067091e-01  3.30670850e-01
  3.33556164e-01  3.37849291e-01  3.47195389e-01  3.52413508e-01
  3.65229022e-01  3.67375096e-01  3.71284820e-01  3.80930625e-01
  3.91113612e-01  3.94434365e-01  4.02145507e-01  4.08404914e-01
  4.11950439e-01  4.17694623e-01  4.18769391e-01  4.26200042e-01
  4.28641581e-01  4.30275249e-01  4.39711966e-01  4.42928808e-01
  4.45329524e-01  4.53696029e-01  4.65022663e-01  4.72690696e-01
  4.76368654e-01  4.80046598e-01  4.83993683e-01  4.90287279e-01
  4.99155099e-01  5.02759127e-01  5.06605955e-01  5.09030260e-01
  5.12330130e-01  5.16877164e-01  5.21371645e-01  5.22918391e-01
  5.27074347e-01  5.32163687e-01  5.35773331e-01  5.38884415e-01
  5.43816804e-01  5.46402705e-01  5.49403590e-01  5.56347050e-01
  5.61096242e-01  5.66910057e-01  5.77656445e-01  5.79035543e-01
  5.82573701e-01  5.89247429e-01  5.91365144e-01  5.98160669e-01
  6.01611022e-01  6.09938865e-01  6.14931930e-01  6.30812939e-01
  6.36548147e-01  6.47033817e-01  6.57445824e-01  6.62640043e-01
  6.65840968e-01  6.80563619e-01  6.87321984e-01  6.92279766e-01
  6.96094859e-01  7.07582800e-01  7.12545078e-01  7.21227355e-01
  7.27007591e-01  7.31358195e-01  7.39684176e-01  7.52044406e-01
  7.56795780e-01  7.61739436e-01  7.66890137e-01  7.70121069e-01
  7.79243220e-01  7.89624922e-01  7.96162743e-01  8.03192257e-01
  8.07502742e-01  8.10558749e-01  8.14193640e-01  8.21607364e-01
  8.29603904e-01  8.33920264e-01  8.39514103e-01  8.44273082e-01
  8.56404653e-01  8.57799429e-01  8.64173147e-01  8.75533156e-01
  8.77629093e-01  8.83403087e-01  8.91806822e-01  8.99791398e-01
  9.08160387e-01  9.12485098e-01  9.17421751e-01  9.24132686e-01
  9.26820929e-01  9.35163241e-01  9.43001658e-01  9.46605026e-01
  9.48109804e-01  9.51403631e-01  9.56231075e-01  9.60933232e-01
  9.72885586e-01  9.76335817e-01  9.86406482e-01  9.92326548e-01
  9.98656254e-01  1.00113478e+00  1.01645800e+00  1.02654365e+00
  1.03212013e+00  1.04680920e+00  1.05126478e+00  1.06207171e+00
  1.06909282e+00  1.07411152e+00  1.08928545e+00  1.09377254e+00
  1.09455067e+00  1.11131900e+00  1.11818667e+00  1.12613095e+00
  1.13326901e+00  1.14521305e+00  1.15231121e+00  1.16283536e+00
  1.17510350e+00  1.18124171e+00  1.18460762e+00  1.20690016e+00
  1.20959394e+00  1.21753835e+00  1.22582163e+00  1.22797955e+00
  1.23399908e+00  1.24371607e+00  1.26464672e+00  1.28620938e+00
  1.29024884e+00  1.29355526e+00  1.30780467e+00  1.31882052e+00
  1.32426970e+00  1.32662196e+00  1.33005863e+00  1.34150622e+00
  1.36078355e+00  1.37214753e+00  1.38638447e+00  1.39041568e+00
  1.39985475e+00  1.40617497e+00  1.40988447e+00  1.41303057e+00
  1.42342070e+00  1.45119997e+00  1.45268959e+00  1.46221704e+00
  1.46832145e+00  1.47800665e+00  1.47895253e+00  1.48440762e+00
  1.49201573e+00  1.50775961e+00  1.51060856e+00  1.52633057e+00
  1.53595473e+00  1.55546028e+00  1.56669064e+00  1.57346902e+00
  1.57820996e+00  1.58809684e+00  1.59827069e+00  1.60740831e+00
  1.61323987e+00  1.62369288e+00  1.63945130e+00  1.65633681e+00
  1.66609393e+00  1.67852354e+00  1.68143221e+00  1.68496326e+00
  1.68756143e+00  1.70398603e+00  1.71685590e+00  1.71904229e+00
  1.72070226e+00  1.72876269e+00  1.74164459e+00  1.74621986e+00
  1.74703391e+00  1.76217744e+00  1.76679239e+00  1.77517650e+00
  1.77842621e+00  1.78676519e+00  1.79829321e+00  1.80577118e+00
  1.81150264e+00  1.81981996e+00  1.83930308e+00  1.84688158e+00
  1.85622586e+00  1.85785379e+00  1.87634646e+00  1.88265605e+00
  1.88796573e+00  1.89079262e+00  1.89598507e+00  1.90532475e+00
  1.93549368e+00  1.95852861e+00  1.96053322e+00  1.97634423e+00
  1.97746836e+00  1.98684532e+00  1.99081626e+00  2.00017933e+00
  2.01911734e+00  2.02687150e+00  2.03186166e+00  2.03462141e+00
  2.04311526e+00  2.05573963e+00  2.05792188e+00  2.06564438e+00
  2.07147235e+00  2.07840361e+00  2.08733857e+00  2.10133109e+00
  2.11894392e+00  2.12809791e+00  2.14743191e+00  2.15016275e+00
  2.16021040e+00  2.17081755e+00  2.18645376e+00  2.20361058e+00
  2.21199819e+00  2.21516388e+00  2.22013832e+00  2.22849235e+00
  2.23416745e+00  2.24068917e+00  2.24813671e+00  2.26468664e+00
  2.27077331e+00  2.27657967e+00  2.27933609e+00  2.29634876e+00
  2.30065751e+00  2.30910663e+00  2.32094639e+00  2.32422330e+00
  2.33171578e+00  2.34533298e+00  2.36343224e+00  2.37142195e+00
  2.37365633e+00  2.39224163e+00  2.39794992e+00  2.40750967e+00
  2.42282769e+00  2.42902443e+00  2.43363785e+00  2.44874640e+00
  2.46342136e+00  2.46962057e+00  2.48917217e+00  2.49166920e+00
  2.50085543e+00  2.51264732e+00  2.51903034e+00  2.52883419e+00
  2.54385145e+00  2.56732978e+00  2.57239902e+00  2.57855132e+00
  2.58127355e+00  2.59095805e+00  2.60594689e+00  2.61181760e+00
  2.62018611e+00  2.62326537e+00  2.62734172e+00  2.63614328e+00
  2.64775549e+00  2.65806267e+00  2.66762249e+00  2.66961312e+00
  2.67165432e+00  2.67857698e+00  2.69104891e+00  2.69606798e+00
  2.70009518e+00  2.70797987e+00  2.71202323e+00  2.71755643e+00
  2.72123561e+00  2.73249962e+00  2.73617899e+00  2.73921902e+00
  2.74860579e+00  2.75887168e+00  2.76235176e+00  2.77541467e+00
  2.77994014e+00  2.79390814e+00  2.80611820e+00  2.81588446e+00
  2.82517993e+00  2.82883127e+00  2.83327750e+00  2.84065755e+00
  2.84665362e+00  2.84746515e+00  2.86833250e+00  2.87236987e+00
  2.87710721e+00  2.88642749e+00  2.89168191e+00  2.90522965e+00
  2.92376449e+00  2.92746355e+00  2.93399761e+00  2.94396377e+00
  2.94564463e+00  2.95155658e+00  2.95547809e+00  2.96623622e+00
  2.98289532e+00  3.00044261e+00  3.00159021e+00  3.01705539e+00
  3.03254571e+00  3.03489652e+00  3.04196194e+00  3.04792966e+00
  3.05158071e+00  3.05931388e+00  3.06924598e+00  3.07623832e+00
  3.08757414e+00  3.09336661e+00  3.10076335e+00  3.11305118e+00
  3.12414973e+00  3.13103909e+00  3.14365706e+00  3.15197807e+00
  3.15350212e+00  3.16539510e+00  3.16712730e+00  3.17097123e+00
  3.18184510e+00  3.18416428e+00  3.19584863e+00  3.19836120e+00
  3.21321999e+00  3.21823147e+00  3.22343371e+00  3.22945471e+00
  3.24721492e+00  3.24845850e+00  3.25542161e+00  3.26304096e+00
  3.26523736e+00  3.27439099e+00  3.27912973e+00  3.29217082e+00
  3.30471030e+00  3.30872552e+00  3.31100624e+00  3.31623484e+00
  3.32851786e+00  3.33267665e+00  3.33956287e+00  3.34184952e+00
  3.34342404e+00  3.35323596e+00  3.36370951e+00  3.37182437e+00
  3.37907029e+00  3.38502111e+00  3.39374101e+00  3.39554481e+00
  3.40478436e+00  3.40600319e+00  3.41080843e+00  3.41717719e+00
  3.42397222e+00  3.43413859e+00  3.43991988e+00  3.44723204e+00
  3.45350570e+00  3.45578951e+00  3.46536769e+00  3.46966611e+00
  3.47309051e+00  3.48077338e+00  3.48575576e+00  3.49477286e+00
  3.50267101e+00  3.50975641e+00  3.52096927e+00  3.52957955e+00
  3.53589450e+00  3.53978173e+00  3.55106854e+00  3.57067666e+00
  3.57359961e+00  3.57884025e+00  3.58066916e+00  3.60103719e+00
  3.60205911e+00  3.61225236e+00  3.61544784e+00  3.62322212e+00
  3.63268644e+00  3.63989680e+00  3.65182175e+00  3.65717944e+00
  3.66608713e+00  3.67516921e+00  3.68192056e+00  3.68927555e+00
  3.69443459e+00  3.70260259e+00  3.71918555e+00  3.72436282e+00
  3.73178172e+00  3.75183140e+00  3.75844854e+00  3.77342342e+00
  3.78389297e+00  3.79066408e+00  3.80257629e+00  3.80768839e+00
  3.81008218e+00  3.82940156e+00  3.83447270e+00  3.84290218e+00
  3.85739378e+00  3.88195261e+00  3.89690486e+00  3.90362300e+00
  3.92683316e+00  3.93258217e+00  3.93541319e+00  3.96771150e+00
  3.98039316e+00  3.98461727e+00  3.99426474e+00  4.00032257e+00
  4.01239509e+00  4.01608731e+00  4.03912450e+00  4.04878544e+00
  4.05495863e+00  4.05645399e+00  4.07698520e+00  4.08938765e+00
  4.09807342e+00  4.10942567e+00  4.11249948e+00  4.12500388e+00
  4.12993412e+00  4.14425176e+00  4.15124575e+00  4.16217485e+00
  4.17315920e+00  4.18849201e+00  4.19350155e+00  4.20073863e+00
  4.20823254e+00  4.23409677e+00  4.24114120e+00  4.24831162e+00
  4.25876622e+00  4.27097901e+00  4.28608157e+00  4.29260972e+00
  4.31290845e+00  4.32261806e+00  4.33468905e+00  4.35621621e+00
  4.36635855e+00  4.37255245e+00  4.38228270e+00  4.39697717e+00
  4.39932548e+00  4.41225317e+00  4.41864646e+00  4.45691951e+00
  4.46622037e+00  4.47709920e+00  4.50172186e+00  4.52282648e+00
  4.52709388e+00  4.54137543e+00  4.55607228e+00  4.57092276e+00
  4.58855046e+00  4.59293122e+00  4.61853041e+00  4.63552374e+00
  4.64885484e+00  4.67291222e+00  4.70330421e+00  4.70710888e+00
  4.72828818e+00  4.73325992e+00  4.74858236e+00  4.76298909e+00
  4.78298282e+00  4.81040576e+00  4.84415206e+00  4.87149156e+00
  4.88294938e+00  4.91278624e+00  4.93349716e+00  4.96222969e+00
  4.99153332e+00  5.01058552e+00  5.04175707e+00  5.05092935e+00
  5.09817848e+00  5.10556640e+00  5.12426856e+00  5.15276095e+00
  5.18694982e+00  5.19255074e+00  5.21565046e+00  5.22541921e+00
  5.29284040e+00  5.29370058e+00  5.31210143e+00  5.32821146e+00
  5.34320224e+00  5.35385112e+00  5.38879524e+00  5.39585170e+00
  5.40486916e+00  5.44128620e+00  5.48670925e+00  5.52201563e+00
  5.54245024e+00  5.55382203e+00  5.58481470e+00  5.60109112e+00
  5.62342953e+00  5.67656415e+00  5.68936558e+00  5.78055623e+00
  5.80493666e+00  5.84794710e+00  5.92847724e+00  5.96019125e+00
  5.96787256e+00  6.05811050e+00  6.11054253e+00  6.18807819e+00
  6.20244234e+00  6.27718186e+00  6.44946981e+00  6.46943113e+00
  6.51778072e+00  6.58894481e+00  6.65239952e+00  6.69660065e+00
  6.89222603e+00  6.90640411e+00  6.93142018e+00  6.93426399e+00
  6.94100748e+00  6.94537287e+00  6.94990408e+00  6.95370618e+00
  6.95835122e+00  6.96765560e+00  6.97667169e+00  6.99231590e+00
  7.03882709e+00  7.05666085e+00  7.05908907e+00  7.10333065e+00
  7.12699773e+00  7.15655991e+00  7.19587181e+00  7.20614375e+00
  7.25631957e+00  7.41496861e+00  7.42792292e+00  7.45203891e+00
  7.48902366e+00  7.54964997e+00  7.60839630e+00  7.63514219e+00
  7.67246281e+00  8.35711023e+00  8.38576296e+00  8.39806251e+00
  8.52663984e+00  8.57017807e+00  8.65020361e+00  8.75126985e+00
  8.82818867e+00  8.86757378e+00  8.96697980e+00  9.02279071e+00
  9.08488194e+00  9.10215727e+00  9.15654557e+00  9.21386172e+00
  2.24199180e+01  2.25183348e+01  2.25254426e+01  2.25365318e+01
  2.26101681e+01  2.26520707e+01  2.26758365e+01  2.27161639e+01
  2.28342138e+01  2.29494040e+01  2.30987903e+01  2.31518698e+01
  2.31851689e+01  2.32561058e+01  2.34314268e+01  2.37442790e+01
  3.30547926e+01  4.39503905e+01  4.44766139e+01  5.71191829e+01
  5.72505337e+01  5.74812645e+01]
nelec by numeric integration = 159.9999177481776
    CPU time for vxc     82.91 sec, wall time      4.83 sec
    CPU time for df vj and vk    136.87 sec, wall time      9.23 sec
    CPU time for df vj and vk    111.98 sec, wall time      5.95 sec
E1 = -5245.412165604318  Ecoul = 2403.496581534018  Exc = -147.4716446274062
cycle= 1 E= -1123.06201271382  delta_E= 5e-12  |g|= 9.55e-06  |ddm|= 1.65e-05
    CPU time for cycle= 1    335.63 sec, wall time     20.46 sec
  HOMO = -0.285546182514822  LUMO = -0.00713235305665729
  mo_energy =
[-2.47845297e+01 -2.47820034e+01 -2.47819875e+01 -1.92616217e+01
 -1.91812531e+01 -1.44294459e+01 -1.05281500e+01 -1.04005786e+01
 -1.03462492e+01 -1.03287747e+01 -1.03280982e+01 -1.03097822e+01
 -1.03076096e+01 -1.02916962e+01 -1.02866465e+01 -1.02823692e+01
 -1.02793196e+01 -1.02766564e+01 -1.02764590e+01 -1.02763224e+01
 -1.02724478e+01 -1.02704464e+01 -1.44806384e+00 -1.36054585e+00
 -1.35712485e+00 -1.24171393e+00 -1.15735518e+00 -1.10477520e+00
 -1.01045862e+00 -9.78715378e-01 -9.68747372e-01 -9.17379846e-01
 -8.99580603e-01 -8.96728647e-01 -8.65068183e-01 -8.25790547e-01
 -8.02870513e-01 -7.89350109e-01 -7.67765182e-01 -7.65868496e-01
 -7.31308731e-01 -7.20367119e-01 -7.17730328e-01 -6.97071846e-01
 -6.74684317e-01 -6.57886633e-01 -6.42370187e-01 -6.38485089e-01
 -6.13187405e-01 -5.99050076e-01 -5.97698768e-01 -5.92487194e-01
 -5.87776984e-01 -5.87474401e-01 -5.73016376e-01 -5.70890623e-01
 -5.56120238e-01 -5.53138806e-01 -5.51480191e-01 -5.41645101e-01
 -5.37862674e-01 -5.34224956e-01 -5.28829187e-01 -5.27511754e-01
 -5.19891969e-01 -5.17862842e-01 -5.11427532e-01 -4.90593756e-01
 -4.74722379e-01 -4.67888391e-01 -4.64437722e-01 -4.55094875e-01
 -4.53784808e-01 -4.45555326e-01 -4.32254597e-01 -4.26657320e-01
 -3.91296254e-01 -3.77971953e-01 -3.30698097e-01 -2.85546183e-01
 -7.13235306e-03  5.91982794e-02  6.97098682e-02  1.00258354e-01
  1.18841732e-01  1.32658020e-01  1.33185454e-01  1.43631597e-01
  1.51088419e-01  1.59460497e-01  1.61120775e-01  1.66517111e-01
  1.77184885e-01  1.80472765e-01  1.82820517e-01  1.90369607e-01
  1.93797401e-01  2.05002357e-01  2.07580058e-01  2.13436916e-01
  2.16620927e-01  2.21102354e-01  2.22793041e-01  2.30859574e-01
  2.34776332e-01  2.38757775e-01  2.52536188e-01  2.58356983e-01
  2.62168877e-01  2.64209372e-01  2.69401435e-01  2.72132219e-01
  2.75975252e-01  2.80281635e-01  2.83355656e-01  2.90159416e-01
  2.94627572e-01  2.98582290e-01  3.07403568e-01  3.13884343e-01
  3.15833603e-01  3.24263287e-01  3.26067334e-01  3.30670697e-01
  3.33556416e-01  3.37849412e-01  3.47195697e-01  3.52413777e-01
  3.65229216e-01  3.67375148e-01  3.71284982e-01  3.80930757e-01
  3.91113782e-01  3.94434627e-01  4.02145667e-01  4.08405032e-01
  4.11950414e-01  4.17694759e-01  4.18769697e-01  4.26200058e-01
  4.28641744e-01  4.30275315e-01  4.39712136e-01  4.42929103e-01
  4.45329694e-01  4.53696128e-01  4.65022912e-01  4.72690826e-01
  4.76368651e-01  4.80046804e-01  4.83993952e-01  4.90287503e-01
  4.99155174e-01  5.02759327e-01  5.06606072e-01  5.09030296e-01
  5.12330197e-01  5.16877301e-01  5.21371930e-01  5.22918623e-01
  5.27074521e-01  5.32163836e-01  5.35773484e-01  5.38884614e-01
  5.43816950e-01  5.46402907e-01  5.49403887e-01  5.56347234e-01
  5.61096207e-01  5.66910244e-01  5.77656573e-01  5.79035728e-01
  5.82573822e-01  5.89247493e-01  5.91365516e-01  5.98160817e-01
  6.01611232e-01  6.09938728e-01  6.14932141e-01  6.30813064e-01
  6.36548444e-01  6.47033824e-01  6.57445843e-01  6.62640178e-01
  6.65840974e-01  6.80563912e-01  6.87322118e-01  6.92279812e-01
  6.96094828e-01  7.07582868e-01  7.12545172e-01  7.21227194e-01
  7.27007697e-01  7.31358363e-01  7.39684435e-01  7.52044652e-01
  7.56795701e-01  7.61739708e-01  7.66890185e-01  7.70121296e-01
  7.79243279e-01  7.89624921e-01  7.96162781e-01  8.03192472e-01
  8.07502769e-01  8.10558760e-01  8.14193551e-01  8.21607266e-01
  8.29604086e-01  8.33920310e-01  8.39514106e-01  8.44273274e-01
  8.56404606e-01  8.57799402e-01  8.64173274e-01  8.75533274e-01
  8.77629138e-01  8.83403296e-01  8.91806912e-01  8.99791561e-01
  9.08160649e-01  9.12485263e-01  9.17422019e-01  9.24132822e-01
  9.26820972e-01  9.35163514e-01  9.43001749e-01  9.46605324e-01
  9.48109790e-01  9.51403837e-01  9.56231214e-01  9.60933387e-01
  9.72885768e-01  9.76335852e-01  9.86406676e-01  9.92326722e-01
  9.98656612e-01  1.00113484e+00  1.01645812e+00  1.02654351e+00
  1.03212019e+00  1.04680933e+00  1.05126495e+00  1.06207192e+00
  1.06909315e+00  1.07411158e+00  1.08928559e+00  1.09377275e+00
  1.09455067e+00  1.11131912e+00  1.11818677e+00  1.12613108e+00
  1.13326918e+00  1.14521319e+00  1.15231141e+00  1.16283552e+00
  1.17510373e+00  1.18124200e+00  1.18460781e+00  1.20690032e+00
  1.20959417e+00  1.21753848e+00  1.22582167e+00  1.22797954e+00
  1.23399918e+00  1.24371617e+00  1.26464706e+00  1.28620956e+00
  1.29024890e+00  1.29355553e+00  1.30780500e+00  1.31882077e+00
  1.32426996e+00  1.32662223e+00  1.33005885e+00  1.34150648e+00
  1.36078363e+00  1.37214750e+00  1.38638461e+00  1.39041597e+00
  1.39985503e+00  1.40617507e+00  1.40988477e+00  1.41303096e+00
  1.42342079e+00  1.45120024e+00  1.45268972e+00  1.46221735e+00
  1.46832173e+00  1.47800685e+00  1.47895260e+00  1.48440757e+00
  1.49201580e+00  1.50775953e+00  1.51060897e+00  1.52633058e+00
  1.53595512e+00  1.55546030e+00  1.56669094e+00  1.57346922e+00
  1.57821030e+00  1.58809679e+00  1.59827094e+00  1.60740854e+00
  1.61324003e+00  1.62369316e+00  1.63945147e+00  1.65633710e+00
  1.66609414e+00  1.67852380e+00  1.68143244e+00  1.68496343e+00
  1.68756168e+00  1.70398631e+00  1.71685632e+00  1.71904239e+00
  1.72070255e+00  1.72876288e+00  1.74164433e+00  1.74622013e+00
  1.74703438e+00  1.76217777e+00  1.76679276e+00  1.77517681e+00
  1.77842653e+00  1.78676571e+00  1.79829299e+00  1.80577148e+00
  1.81150291e+00  1.81982006e+00  1.83930322e+00  1.84688202e+00
  1.85622619e+00  1.85785425e+00  1.87634667e+00  1.88265644e+00
  1.88796592e+00  1.89079258e+00  1.89598525e+00  1.90532512e+00
  1.93549414e+00  1.95852860e+00  1.96053344e+00  1.97634423e+00
  1.97746863e+00  1.98684530e+00  1.99081617e+00  2.00017949e+00
  2.01911745e+00  2.02687155e+00  2.03186192e+00  2.03462150e+00
  2.04311507e+00  2.05573948e+00  2.05792168e+00  2.06564445e+00
  2.07147254e+00  2.07840365e+00  2.08733882e+00  2.10133066e+00
  2.11894400e+00  2.12809783e+00  2.14743236e+00  2.15016302e+00
  2.16021023e+00  2.17081783e+00  2.18645416e+00  2.20361032e+00
  2.21199838e+00  2.21516385e+00  2.22013849e+00  2.22849264e+00
  2.23416765e+00  2.24068927e+00  2.24813687e+00  2.26468675e+00
  2.27077335e+00  2.27658000e+00  2.27933617e+00  2.29634907e+00
  2.30065765e+00  2.30910690e+00  2.32094654e+00  2.32422364e+00
  2.33171627e+00  2.34533333e+00  2.36343234e+00  2.37142211e+00
  2.37365642e+00  2.39224142e+00  2.39794999e+00  2.40750986e+00
  2.42282765e+00  2.42902464e+00  2.43363786e+00  2.44874643e+00
  2.46342159e+00  2.46962091e+00  2.48917240e+00  2.49166941e+00
  2.50085531e+00  2.51264755e+00  2.51903061e+00  2.52883439e+00
  2.54385176e+00  2.56733000e+00  2.57239915e+00  2.57855147e+00
  2.58127371e+00  2.59095802e+00  2.60594699e+00  2.61181755e+00
  2.62018614e+00  2.62326562e+00  2.62734191e+00  2.63614360e+00
  2.64775562e+00  2.65806267e+00  2.66762247e+00  2.66961308e+00
  2.67165438e+00  2.67857720e+00  2.69104912e+00  2.69606795e+00
  2.70009546e+00  2.70797990e+00  2.71202336e+00  2.71755663e+00
  2.72123604e+00  2.73250006e+00  2.73617891e+00  2.73921896e+00
  2.74860598e+00  2.75887185e+00  2.76235185e+00  2.77541480e+00
  2.77994019e+00  2.79390841e+00  2.80611805e+00  2.81588485e+00
  2.82517971e+00  2.82883146e+00  2.83327760e+00  2.84065755e+00
  2.84665401e+00  2.84746543e+00  2.86833272e+00  2.87236989e+00
  2.87710751e+00  2.88642734e+00  2.89168185e+00  2.90522973e+00
  2.92376464e+00  2.92746362e+00  2.93399779e+00  2.94396390e+00
  2.94564469e+00  2.95155677e+00  2.95547845e+00  2.96623649e+00
  2.98289560e+00  3.00044287e+00  3.00159053e+00  3.01705568e+00
  3.03254585e+00  3.03489670e+00  3.04196215e+00  3.04792978e+00
  3.05158091e+00  3.05931427e+00  3.06924659e+00  3.07623859e+00
  3.08757431e+00  3.09336672e+00  3.10076375e+00  3.11305138e+00
  3.12414993e+00  3.13103937e+00  3.14365746e+00  3.15197833e+00
  3.15350226e+00  3.16539511e+00  3.16712747e+00  3.17097137e+00
  3.18184551e+00  3.18416471e+00  3.19584882e+00  3.19836152e+00
  3.21321999e+00  3.21823171e+00  3.22343389e+00  3.22945487e+00
  3.24721476e+00  3.24845839e+00  3.25542188e+00  3.26304087e+00
  3.26523760e+00  3.27439086e+00  3.27913014e+00  3.29217116e+00
  3.30471051e+00  3.30872560e+00  3.31100646e+00  3.31623500e+00
  3.32851809e+00  3.33267678e+00  3.33956298e+00  3.34184955e+00
  3.34342406e+00  3.35323622e+00  3.36370957e+00  3.37182446e+00
  3.37907024e+00  3.38502094e+00  3.39374129e+00  3.39554498e+00
  3.40478471e+00  3.40600330e+00  3.41080860e+00  3.41717748e+00
  3.42397239e+00  3.43413903e+00  3.43992013e+00  3.44723229e+00
  3.45350619e+00  3.45578976e+00  3.46536780e+00  3.46966619e+00
  3.47309059e+00  3.48077366e+00  3.48575583e+00  3.49477286e+00
  3.50267118e+00  3.50975688e+00  3.52096914e+00  3.52957967e+00
  3.53589488e+00  3.53978202e+00  3.55106856e+00  3.57067686e+00
  3.57359974e+00  3.57884044e+00  3.58066936e+00  3.60103757e+00
  3.60205945e+00  3.61225278e+00  3.61544814e+00  3.62322244e+00
  3.63268658e+00  3.63989692e+00  3.65182175e+00  3.65717957e+00
  3.66608748e+00  3.67516959e+00  3.68192085e+00  3.68927584e+00
  3.69443490e+00  3.70260265e+00  3.71918592e+00  3.72436294e+00
  3.73178207e+00  3.75183187e+00  3.75844872e+00  3.77342377e+00
  3.78389273e+00  3.79066428e+00  3.80257657e+00  3.80768889e+00
  3.81008258e+00  3.82940172e+00  3.83447304e+00  3.84290220e+00
  3.85739392e+00  3.88195290e+00  3.89690536e+00  3.90362324e+00
  3.92683353e+00  3.93258250e+00  3.93541344e+00  3.96771156e+00
  3.98039334e+00  3.98461733e+00  3.99426482e+00  4.00032286e+00
  4.01239539e+00  4.01608695e+00  4.03912489e+00  4.04878576e+00
  4.05495895e+00  4.05645389e+00  4.07698533e+00  4.08938803e+00
  4.09807382e+00  4.10942594e+00  4.11249988e+00  4.12500425e+00
  4.12993457e+00  4.14425176e+00  4.15124615e+00  4.16217485e+00
  4.17315933e+00  4.18849261e+00  4.19350184e+00  4.20073880e+00
  4.20823261e+00  4.23409709e+00  4.24114127e+00  4.24831188e+00
  4.25876660e+00  4.27097931e+00  4.28608166e+00  4.29261016e+00
  4.31290867e+00  4.32261856e+00  4.33468937e+00  4.35621658e+00
  4.36635900e+00  4.37255263e+00  4.38228285e+00  4.39697748e+00
  4.39932594e+00  4.41225349e+00  4.41864677e+00  4.45692001e+00
  4.46622077e+00  4.47709956e+00  4.50172238e+00  4.52282686e+00
  4.52709431e+00  4.54137590e+00  4.55607273e+00  4.57092313e+00
  4.58855103e+00  4.59293139e+00  4.61853066e+00  4.63552379e+00
  4.64885510e+00  4.67291238e+00  4.70330467e+00  4.70710913e+00
  4.72828851e+00  4.73326013e+00  4.74858246e+00  4.76298943e+00
  4.78298250e+00  4.81040546e+00  4.84415225e+00  4.87149171e+00
  4.88294913e+00  4.91278646e+00  4.93349757e+00  4.96223023e+00
  4.99153369e+00  5.01058541e+00  5.04175750e+00  5.05093014e+00
  5.09817867e+00  5.10556646e+00  5.12426893e+00  5.15276142e+00
  5.18695086e+00  5.19255180e+00  5.21565075e+00  5.22542013e+00
  5.29284039e+00  5.29370101e+00  5.31210173e+00  5.32821140e+00
  5.34320064e+00  5.35385157e+00  5.38879543e+00  5.39585112e+00
  5.40487057e+00  5.44128668e+00  5.48670961e+00  5.52201653e+00
  5.54245115e+00  5.55382199e+00  5.58481498e+00  5.60108946e+00
  5.62343002e+00  5.67656440e+00  5.68936595e+00  5.78055675e+00
  5.80493724e+00  5.84794742e+00  5.92847486e+00  5.96019239e+00
  5.96786963e+00  6.05811170e+00  6.11054425e+00  6.18807882e+00
  6.20244020e+00  6.27718115e+00  6.44946858e+00  6.46943115e+00
  6.51777998e+00  6.58894249e+00  6.65239950e+00  6.69659607e+00
  6.89222538e+00  6.90640391e+00  6.93142008e+00  6.93426305e+00
  6.94100646e+00  6.94537193e+00  6.94990348e+00  6.95370531e+00
  6.95835099e+00  6.96765460e+00  6.97666748e+00  6.99231199e+00
  7.03882549e+00  7.05666045e+00  7.05908832e+00  7.10332976e+00
  7.12699720e+00  7.15655923e+00  7.19587176e+00  7.20614315e+00
  7.25631875e+00  7.41496782e+00  7.42792203e+00  7.45203574e+00
  7.48902296e+00  7.54964936e+00  7.60839208e+00  7.63514155e+00
  7.67246237e+00  8.35710869e+00  8.38576182e+00  8.39806176e+00
  8.52663904e+00  8.57017669e+00  8.65020245e+00  8.75126874e+00
  8.82818759e+00  8.86757276e+00  8.96697871e+00  9.02278967e+00
  9.08488044e+00  9.10215665e+00  9.15654464e+00  9.21386059e+00
  2.24199184e+01  2.25183353e+01  2.25254433e+01  2.25365323e+01
  2.26101685e+01  2.26520714e+01  2.26758362e+01  2.27161644e+01
  2.28342150e+01  2.29494049e+01  2.30987914e+01  2.31518701e+01
  2.31851696e+01  2.32561064e+01  2.34314269e+01  2.37442796e+01
  3.30547958e+01  4.39503910e+01  4.44766060e+01  5.71191796e+01
  5.72505327e+01  5.74812617e+01]
nelec by numeric integration = 159.99991774830085
    CPU time for vxc     83.68 sec, wall time      4.95 sec
    CPU time for df vj and vk    137.42 sec, wall time      9.26 sec
    CPU time for df vj and vk    102.72 sec, wall time      5.34 sec
E1 = -5245.412175228149  Ecoul = 2403.4965977270317  Exc = -147.4716511965846
Extra cycle  E= -1123.06201271382  delta_E= 4.55e-12  |g|= 1.21e-05  |ddm|= 1.85e-05
    CPU time for scf_cycle   1227.67 sec, wall time     85.15 sec
    CPU time for SCF   1227.68 sec, wall time     85.16 sec
converged SCF energy = -1123.06201271382
SCF Done after 85.18 seconds
after SCF memory used: 8.35 GB
Converting <class 'pyscf.df.df_jk.density_fit.<locals>.DFHF'> to RHF
Converting <class 'pyscf.df.df_jk.density_fit.<locals>.DFHF'> to RHF
hdiag shape (54880,)
n_occ =  80
n_vir =  686
max_vir =  178
A_size =  54880
A_reduced_size = 14240
a_x = 0.56
beta = 8.0
alpha = 4.58
Q-Gamma tensors building time = 0.26
after Q matrix memory used: 8.47 GB
TDDFT
|-------- In-house Developed TDDFT Starts ---------|
Residual conv = 1e-05

Number of excited states = 20
Initial guess:   sTDDFT
Preconditioner:  sTDDFT
A matrix size =  54880
setting initial guess
sTDDFT Convergence tol = 1.00e-03
sTDDFT diagonalization Converged
after  8 iterations; 31.5438 seconds
final subspace 167
max_norm =  9.67e-04
MVcost     4.7798s 15.15%
GScost     23.6730s 75.05%
subgencost 2.0964s 6.65%
subcost    0.2710s 0.86%
sTDDFT excitation energy:
[3.73254069 4.29454821 4.86112476 4.96565155 5.25187358 5.7749935
 6.07247665 6.23415597 6.30636413 6.65509646 6.7272747  6.7592181
 6.78700413 7.13248508 7.19369371 7.34182813 7.38272088 7.47803373
 7.56062448 7.60033673 7.63424178 7.72216492 7.76684387 7.79727105
 7.93447631 8.03015199 8.08093946 8.10737913]
new_m = 28
initial guess done

iteration 0
beginning of step 0 memory used: 9.53 GB
    CPU time for df vj and vk   3765.05 sec, wall time    226.95 sec
    CPU time for df vj and vk   2859.62 sec, wall time    151.09 sec
subspace size: 28
Maximum residual norm:  1.51e-01
unconverged states [0, 1, 2, 3, 4, 5, 6, 7, 8, 9, 10, 11, 12, 13, 14, 15, 16, 17, 18, 19]
sTDDFT_preconditioner conv 0.01
sTDDFT preconditioning Done
after 18 steps; 41.3958 s
final subspace 181
max_norm =  7.67e-03
initial_cost 0.5486s  1.33%
MVcost     4.9824s  12.04%
GScost     27.2708s  65.88%
subgencost 6.6783s  16.13%
subcost    0.6763s  1.63%
m & new_m 28 48

iteration 1
beginning of step 1 memory used: 9.66 GB
    CPU time for df vj and vk   2684.37 sec, wall time    163.64 sec
    CPU time for df vj and vk   2060.83 sec, wall time    108.71 sec
subspace size: 48
Maximum residual norm:  6.09e-02
unconverged states [0, 1, 2, 3, 4, 5, 6, 7, 8, 9, 10, 11, 12, 13, 14, 15, 16, 17, 18, 19]
sTDDFT_preconditioner conv 0.01
sTDDFT preconditioning Done
after 20 steps; 41.1719 s
final subspace 180
max_norm =  8.70e-03
initial_cost 0.5666s  1.38%
MVcost     4.6968s  11.41%
GScost     26.2067s  63.65%
subgencost 7.5679s  18.38%
subcost    0.8189s  1.99%
m & new_m 48 68

iteration 2
beginning of step 2 memory used: 9.70 GB
    CPU time for df vj and vk   2684.35 sec, wall time    162.95 sec
    CPU time for df vj and vk   2035.84 sec, wall time    107.63 sec
subspace size: 68
Maximum residual norm:  2.06e-02
unconverged states [0, 1, 2, 3, 4, 5, 6, 7, 8, 9, 10, 11, 12, 13, 14, 15, 16, 17, 18, 19]
sTDDFT_preconditioner conv 0.01
sTDDFT preconditioning Done
after 26 steps; 43.1955 s
final subspace 178
max_norm =  6.60e-03
initial_cost 0.5312s  1.23%
MVcost     4.6287s  10.72%
GScost     25.4557s  58.93%
subgencost 10.0366s  23.24%
subcost    1.1031s  2.55%
m & new_m 68 88

iteration 3
beginning of step 3 memory used: 9.66 GB
    CPU time for df vj and vk   2690.56 sec, wall time    163.72 sec
    CPU time for df vj and vk   2064.04 sec, wall time    108.58 sec
subspace size: 88
Maximum residual norm:  5.94e-03
unconverged states [0, 1, 2, 3, 4, 5, 6, 7, 8, 9, 10, 11, 12, 13, 14, 15, 16, 17, 18, 19]
sTDDFT_preconditioner conv 0.01
sTDDFT preconditioning Done
after 18 steps; 36.0050 s
final subspace 169
max_norm =  6.52e-03
initial_cost 0.5446s  1.51%
MVcost     4.4231s  12.28%
GScost     23.0832s  64.11%
subgencost 6.3784s  17.72%
subcost    0.6266s  1.74%
m & new_m 88 108

iteration 4
beginning of step 4 memory used: 9.71 GB
    CPU time for df vj and vk   2692.05 sec, wall time    163.82 sec
    CPU time for df vj and vk   2046.11 sec, wall time    108.27 sec
subspace size: 108
Maximum residual norm:  1.62e-03
unconverged states [0, 1, 2, 3, 4, 5, 6, 7, 8, 9, 10, 11, 12, 13, 14, 15, 16, 17, 18, 19]
sTDDFT_preconditioner conv 0.01
sTDDFT preconditioning Done
after 21 steps; 42.0230 s
final subspace 179
max_norm =  9.69e-03
initial_cost 0.5630s  1.34%
MVcost     4.7454s  11.29%
GScost     26.6366s  63.39%
subgencost 8.1350s  19.36%
subcost    0.7944s  1.89%
m & new_m 108 128

iteration 5
beginning of step 5 memory used: 9.65 GB
    CPU time for df vj and vk   2682.74 sec, wall time    163.18 sec
    CPU time for df vj and vk   2052.08 sec, wall time    107.84 sec
subspace size: 128
Maximum residual norm:  5.34e-04
unconverged states [0, 1, 2, 3, 4, 5, 6, 7, 8, 9, 10, 11, 12, 13, 14, 15, 16, 17, 18, 19]
sTDDFT_preconditioner conv 0.01
sTDDFT preconditioning Done
after 20 steps; 40.6690 s
final subspace 174
max_norm =  9.40e-03
initial_cost 0.5514s  1.36%
MVcost     4.9007s  12.05%
GScost     25.6415s  63.05%
subgencost 7.5765s  18.63%
subcost    0.7319s  1.80%
m & new_m 128 148

iteration 6
beginning of step 6 memory used: 9.73 GB
    CPU time for df vj and vk   2693.43 sec, wall time    164.02 sec
    CPU time for df vj and vk   2039.25 sec, wall time    107.19 sec
subspace size: 148
Maximum residual norm:  1.69e-04
unconverged states [0, 2, 4, 5, 6, 7, 8, 9, 10, 11, 12, 13, 14, 15, 16, 17, 18, 19]
sTDDFT_preconditioner conv 0.01
sTDDFT preconditioning Done
after 26 steps; 42.3092 s
final subspace 175
max_norm =  8.59e-03
initial_cost 0.4830s  1.14%
MVcost     4.3567s  10.30%
GScost     25.3725s  59.97%
subgencost 9.6967s  22.92%
subcost    0.9910s  2.34%
m & new_m 148 166

iteration 7
beginning of step 7 memory used: 9.64 GB
    CPU time for df vj and vk   2415.72 sec, wall time    146.70 sec
    CPU time for df vj and vk   1825.92 sec, wall time     96.34 sec
subspace size: 166
Maximum residual norm:  3.68e-05
unconverged states [18, 19]
sTDDFT_preconditioner conv 0.01
========== sTDDFT_precond Failed Due to Iteration Limit========
sTDDFT preconditioning failed
current residual norms [0.005132443387591063, 0.007053625901218171]
after 30 steps; 3.7194 s
final subspace 57
max_norm =  7.05e-03
initial_cost 0.0080s  0.22%
MVcost     1.3324s  35.82%
GScost     0.9403s  25.28%
subgencost 1.0912s  29.34%
subcost    0.0752s  2.02%
m & new_m 166 168

iteration 8
beginning of step 8 memory used: 9.68 GB
    CPU time for df vj and vk    270.38 sec, wall time     17.64 sec
    CPU time for df vj and vk    205.29 sec, wall time     11.02 sec
subspace size: 168
Maximum residual norm:  7.15e-06
TDDFT precedure Done

============= TDDFT Calculation Done ==============
after 9 iterations 3291.10 s
Final subspace  168
preconditioning cost 291.0821 0.09 %
max_norm =  7.15e-06
Total TDDFT memory used: 9.68 GB
Excited State energies (eV) =
 [3.7465065  4.44778356 4.99170855 5.00776355 5.45376685 6.14704636
 6.34439284 6.46188698 6.52754231 6.77381912 7.25922628 7.34809618
 7.43602418 7.47447913 7.48041396 7.57473749 7.63969337 7.79512034
 7.84615452 7.93027498]

Number of excited states = 20
Initial guess:   Adiag
Preconditioner:  Adiag
A matrix size =  54880
new_m = 28
initial guess done

iteration 0
beginning of step 0 memory used: 9.63 GB
    CPU time for df vj and vk   3783.27 sec, wall time    230.47 sec
    CPU time for df vj and vk   2849.54 sec, wall time    150.42 sec
subspace size: 28
Maximum residual norm:  2.04e-01
unconverged states [0, 1, 2, 3, 4, 5, 6, 7, 8, 9, 10, 11, 12, 13, 14, 15, 16, 17, 18, 19]
m & new_m 28 48

iteration 1
beginning of step 1 memory used: 9.63 GB
    CPU time for df vj and vk   2671.90 sec, wall time    162.74 sec
    CPU time for df vj and vk   2042.88 sec, wall time    107.57 sec
subspace size: 48
Maximum residual norm:  7.04e-02
unconverged states [0, 1, 2, 3, 4, 5, 6, 7, 8, 9, 10, 11, 12, 13, 14, 15, 16, 17, 18, 19]
m & new_m 48 68

iteration 2
beginning of step 2 memory used: 9.70 GB
    CPU time for df vj and vk   2670.62 sec, wall time    162.84 sec
    CPU time for df vj and vk   2039.34 sec, wall time    107.76 sec
subspace size: 68
Maximum residual norm:  4.53e-02
unconverged states [0, 1, 2, 3, 4, 5, 6, 7, 8, 9, 10, 11, 12, 13, 14, 15, 16, 17, 18, 19]
m & new_m 68 88

iteration 3
beginning of step 3 memory used: 9.71 GB
    CPU time for df vj and vk   2677.34 sec, wall time    163.58 sec
    CPU time for df vj and vk   2032.07 sec, wall time    106.96 sec
subspace size: 88
Maximum residual norm:  2.43e-02
unconverged states [0, 1, 2, 3, 4, 5, 6, 7, 8, 9, 10, 11, 12, 13, 14, 15, 16, 17, 18, 19]
m & new_m 88 108

iteration 4
beginning of step 4 memory used: 9.65 GB
    CPU time for df vj and vk   2676.47 sec, wall time    163.65 sec
    CPU time for df vj and vk   2037.46 sec, wall time    107.43 sec
subspace size: 108
Maximum residual norm:  1.99e-02
unconverged states [0, 1, 2, 3, 4, 5, 6, 7, 8, 9, 10, 11, 12, 13, 14, 15, 16, 17, 18, 19]
m & new_m 108 128

iteration 5
beginning of step 5 memory used: 9.69 GB
    CPU time for df vj and vk   2690.82 sec, wall time    163.41 sec
    CPU time for df vj and vk   2053.68 sec, wall time    108.00 sec
subspace size: 128
Maximum residual norm:  1.03e-02
unconverged states [0, 1, 2, 3, 4, 5, 6, 7, 8, 9, 10, 11, 12, 13, 14, 15, 16, 17, 18, 19]
m & new_m 128 148

iteration 6
beginning of step 6 memory used: 9.67 GB
    CPU time for df vj and vk   2732.98 sec, wall time    166.89 sec
    CPU time for df vj and vk   2080.77 sec, wall time    109.45 sec
subspace size: 148
Maximum residual norm:  7.27e-03
unconverged states [0, 1, 2, 3, 4, 5, 6, 7, 8, 9, 10, 11, 12, 13, 14, 15, 16, 17, 18, 19]
m & new_m 148 168

iteration 7
beginning of step 7 memory used: 9.73 GB
    CPU time for df vj and vk   2673.66 sec, wall time    163.27 sec
    CPU time for df vj and vk   2031.53 sec, wall time    108.17 sec
subspace size: 168
Maximum residual norm:  3.99e-03
unconverged states [0, 2, 3, 4, 5, 6, 7, 8, 9, 10, 11, 12, 13, 14, 15, 16, 17, 18, 19]
m & new_m 168 187

iteration 8
beginning of step 8 memory used: 9.74 GB
    CPU time for df vj and vk   2528.82 sec, wall time    156.11 sec
    CPU time for df vj and vk   1924.68 sec, wall time    103.67 sec
subspace size: 187
Maximum residual norm:  2.24e-03
unconverged states [2, 3, 5, 6, 7, 8, 9, 10, 11, 12, 13, 14, 15, 16, 17, 18, 19]
m & new_m 187 204

iteration 9
beginning of step 9 memory used: 9.68 GB
    CPU time for df vj and vk   2281.56 sec, wall time    140.37 sec
    CPU time for df vj and vk   1717.53 sec, wall time     92.45 sec
subspace size: 204
Maximum residual norm:  9.87e-04
unconverged states [9, 10, 11, 12, 13, 14, 15, 16, 17, 18, 19]
m & new_m 204 215

iteration 10
beginning of step 10 memory used: 9.72 GB
    CPU time for df vj and vk   1480.16 sec, wall time     90.88 sec
    CPU time for df vj and vk   1114.89 sec, wall time     58.94 sec
subspace size: 215
Maximum residual norm:  4.95e-04
unconverged states [9, 11, 12, 13, 14, 15, 16, 17, 18, 19]
m & new_m 215 225

iteration 11
beginning of step 11 memory used: 9.66 GB
    CPU time for df vj and vk   1338.33 sec, wall time     81.51 sec
    CPU time for df vj and vk   1010.83 sec, wall time     53.18 sec
subspace size: 225
Maximum residual norm:  2.05e-04
unconverged states [14, 16, 17, 18, 19]
m & new_m 225 230

iteration 12
beginning of step 12 memory used: 9.70 GB
    CPU time for df vj and vk    678.22 sec, wall time     41.91 sec
    CPU time for df vj and vk    509.76 sec, wall time     26.94 sec
subspace size: 230
Maximum residual norm:  7.61e-05
unconverged states [16, 17, 18, 19]
m & new_m 230 234

iteration 13
beginning of step 13 memory used: 9.64 GB
    CPU time for df vj and vk    534.92 sec, wall time     33.00 sec
    CPU time for df vj and vk    412.87 sec, wall time     21.48 sec
subspace size: 234
Maximum residual norm:  2.73e-05
unconverged states [18, 19]
m & new_m 234 236

iteration 14
beginning of step 14 memory used: 9.68 GB
    CPU time for df vj and vk    273.77 sec, wall time     17.82 sec
    CPU time for df vj and vk    206.70 sec, wall time     10.93 sec
subspace size: 236
Maximum residual norm:  9.97e-06
TDDFT precedure Done

============= TDDFT Calculation Done ==============
after 15 iterations 4263.59 s
Final subspace  236
preconditioning cost 0.5326 0.00 %
max_norm =  9.97e-06
Total TDDFT memory used: 9.68 GB
Excited State energies (eV) =
 [3.74650633 4.44778346 4.99170855 5.00776355 5.45376684 6.14704635
 6.34439283 6.46188698 6.5275423  6.77381912 7.25922628 7.34809618
 7.43602418 7.47447913 7.48041396 7.57473749 7.63969337 7.79512034
 7.84615452 7.93027499]
xyzfile = 36_Coumarin_153.xyz
checkfile = True
method = RKS
functional = wb97x
basis_set = def2-tzvp
density_fit = True
grid_level = 3
nstates = 20
pytd = False
TDA = False
TDDFT = True
dynpol = False
dynpol_omega = []
stapol = False
sTDA = False
sTDDFT = False
Truncate_test = False
truncate_virtual = 40.0
ip_options = [0, 1]
conv_tolerance = 1e-05
initial_TOL = 0.001
precond_TOL = 0.01
extrainitial = 8
max = 30
eigensolver_tol = 1e-05
memory = 50000
verbose = 5
beta = []
alpha = []
|-------- In-house Developed TDDFT Ends ----------|
