curpath /scratch/pbsjobs/job.16219625.hpc
lib.num_threads() =  20
at beginning memory used: 0.05 GB
mol.max_memory 60000


System: uname_result(system='Linux', node='compt263', release='3.10.0-1127.el7.x86_64', version='#1 SMP Tue Feb 18 16:39:12 EST 2020', machine='x86_64', processor='x86_64')  Threads 20
Python 3.7.0 (default, Aug 23 2018, 14:24:33) 
[GCC 6.3.0]
numpy 1.18.1  scipy 1.4.1
Date: Tue Aug 31 00:11:19 2021
PySCF version 1.7.4
PySCF path  /home/zzz6/.local/lib/python3.7/site-packages/pyscf

[CONFIG] conf_file None
[INPUT] verbose = 5
[INPUT] max_memory = 60000 
[INPUT] num. atoms = 47
[INPUT] num. electrons = 180
[INPUT] charge = 0
[INPUT] spin (= nelec alpha-beta = 2S) = 0
[INPUT] symmetry False subgroup None
[INPUT] Mole.unit = angstrom
[INPUT]  1 C      3.315519413661  -1.070082777694  -0.019443483869 AA    6.265423652498  -2.022163380456  -0.036742859419 Bohr
[INPUT]  2 C      2.402295522455  -2.155449564641   0.009526954679 AA    4.539680607710  -4.073209352484   0.018003335144 Bohr
[INPUT]  3 C      2.870103283735  -3.481859645953   0.016910944004 AA    5.423709155473  -6.579761135026   0.031957052676 Bohr
[INPUT]  4 C      4.251094170790  -3.701229804274  -0.002413625035 AA    8.033403712528  -6.994310654155  -0.004561090284 Bohr
[INPUT]  5 C      5.159883025130  -2.619897141647  -0.030135547162 AA    9.750765752288  -4.950888072244  -0.056947930750 Bohr
[INPUT]  6 C      4.701828583611  -1.298164492462  -0.038395847900 AA    8.885168307676  -2.453175355388  -0.072557636851 Bohr
[INPUT]  7 C      2.529860756828   0.155426561649  -0.015286114429 AA    4.780743963691   0.293713634000  -0.028886569779 Bohr
[INPUT]  8 C      1.063311969716  -1.593860125701   0.019668529814 AA    2.009368407735  -3.011959118441   0.037168134620 Bohr
[INPUT]  9 H      2.171867027772  -4.324663561031   0.036803469853 AA    4.104233861462  -8.172429711235   0.069548478455 Bohr
[INPUT] 10 H      4.635842187979  -4.726419122921   0.003719280105 AA    8.760472091984  -8.931637692228   0.007028420780 Bohr
[INPUT] 11 H      6.236001320635  -2.821070905026  -0.045222218166 AA   11.784334608426  -5.331051388477  -0.085457607079 Bohr
[INPUT] 12 H      5.409001914327  -0.462810742460  -0.058663864728 AA   10.221532225326  -0.874585550756  -0.110858637744 Bohr
[INPUT] 13 O      1.190838702648  -0.205514481231   0.006086333317 AA    2.250359006538  -0.388366084158   0.011501503072 Bohr
[INPUT] 14 C     -0.151228305472  -2.219218809007   0.037693117795 AA   -0.285780079625  -4.193715759507   0.071229669414 Bohr
[INPUT] 15 H     -0.088890113274  -3.312456298883   0.087791805131 AA   -0.167977969268  -6.259635204479   0.165902467680 Bohr
[INPUT] 16 C      2.946948703728   1.456208396933  -0.030026219953 AA    5.568925953188   2.751835050495  -0.056741332268 Bohr
[INPUT] 17 H      4.034187187609   1.578806164048  -0.088413740928 AA    7.623508919810   2.983511253826  -0.167077756001 Bohr
[INPUT] 18 C      2.172121030108   2.686080942563   0.012237541112 AA    4.104713856312   5.075957329857   0.023125601139 Bohr
[INPUT] 19 C      0.774740796246   2.734634086911   0.259302866196 AA    1.464047922433   5.167709475162   0.490011400425 Bohr
[INPUT] 20 C      2.847217948487   3.918668053902  -0.187776364810 AA    5.380462139587   7.405209394956  -0.354845902158 Bohr
[INPUT] 21 C      0.095256315086   3.955931747019   0.288892587142 AA    0.180008347147   7.475627569338   0.545927869116 Bohr
[INPUT] 22 H      0.233773585480   1.806280034502   0.447628728000 AA    0.441768051716   3.413374569479   0.845895701407 Bohr
[INPUT] 23 C      2.162264506541   5.136335062086  -0.161348015110 AA    4.086087726230   9.706266551343  -0.304903559301 Bohr
[INPUT] 24 H      3.927984344831   3.906483107359  -0.370763760233 AA    7.422814633309   7.382183183148  -0.700641963755 Bohr
[INPUT] 25 C      0.778388141834   5.163734653419   0.074104726014 AA    1.470940406675   9.758044274888   0.140037636703 Bohr
[INPUT] 26 H     -0.982476970720   3.964543060997   0.487298736458 AA   -1.856612398352   7.491900594329   0.920861152752 Bohr
[INPUT] 27 H      2.710219841812   6.070939670319  -0.324024110707 AA    5.121573238386  11.472413295659  -0.612316826991 Bohr
[INPUT] 28 H      0.239561445671   6.116880327812   0.095605766116 AA    0.452705522323  11.559228556304   0.180668713888 Bohr
[INPUT] 29 C     -1.490132748886  -1.665779472199   0.005862225538 AA   -2.815942784640  -3.147866986379   0.011078000747 Bohr
[INPUT] 30 C     -1.788148844583  -0.295338792493  -0.214718314812 AA   -3.379111586220  -0.558109431772  -0.405758808923 Bohr
[INPUT] 31 C     -2.599208215651  -2.531742216169   0.186138972772 AA   -4.911791668299  -4.784299406560   0.351751679646 Bohr
[INPUT] 32 C     -3.096757845503   0.176917086593  -0.236419327351 AA   -5.852024202099   0.334324840416  -0.446767779246 Bohr
[INPUT] 33 H     -0.971623210880   0.405750489078  -0.394004055412 AA   -1.836101764833   0.766757299266  -0.744559756697 Bohr
[INPUT] 34 C     -3.913359380705  -2.073726225398   0.171821735673 AA   -7.395177456531  -3.918774623330   0.324696022668 Bohr
[INPUT] 35 H     -2.415752395783  -3.600812300777   0.345738549409 AA   -4.565110412792  -6.804549074433   0.653351169088 Bohr
[INPUT] 36 C     -4.202580133682  -0.695480463878  -0.031435743763 AA   -7.941725469197  -1.314267601714  -0.059404946234 Bohr
[INPUT] 37 H     -3.262290871257   1.240988742969  -0.420687105628 AA   -6.164836285344   2.345128847880  -0.794983413772 Bohr
[INPUT] 38 H     -4.723246754029  -2.791785164136   0.318960824325 AA   -8.925642783857  -5.275709358841   0.602748602440 Bohr
[INPUT] 39 N     -5.503318547807  -0.223812987047  -0.035329308939 AA  -10.399764831595  -0.422945248641  -0.066762718065 Bohr
[INPUT] 40 C     -5.767588455915   1.181440955015  -0.298299744275 AA  -10.899162580882   2.232599837323  -0.563704819707 Bohr
[INPUT] 41 H     -6.851013902177   1.359235281267  -0.232444141680 AA  -12.946539950702   2.568582420440  -0.439255767034 Bohr
[INPUT] 42 H     -5.266515650817   1.834250520182   0.442463484902 AA   -9.952272210780   3.466231126986   0.836134806586 Bohr
[INPUT] 43 H     -5.425895390234   1.488612179940  -1.307486677878 AA  -10.253456268083   2.813069325779  -2.470791732707 Bohr
[INPUT] 44 C     -6.613062291936  -1.148746627269   0.124089227150 AA  -12.496876576448  -2.170816512056   0.234494654322 Bohr
[INPUT] 45 H     -6.550464271175  -1.696889097580   1.084251175874 AA  -12.378583461269  -3.206655658187   2.048937772639 Bohr
[INPUT] 46 H     -7.555256046532  -0.581362718038   0.115862515576 AA  -14.277364728909  -1.098616316125   0.218948422542 Bohr
[INPUT] 47 H     -6.652149379701  -1.898225586648  -0.692443764187 AA  -12.570740467330  -3.587126481407  -1.308529070976 Bohr
[INPUT] ---------------- BASIS SET ---------------- 
[INPUT] l, kappa, [nprim/nctr], expnt,             c_1 c_2 ...
[INPUT] O
[INPUT] 0    0    [6    /1   ]  27032.382631      0.00021726302465
                                4052.3871392      0.0016838662199
                                922.3272271       0.0087395616265
                                261.24070989      0.035239968808
                                85.354641351      0.11153519115
                                31.035035245      0.25588953961
[INPUT] 0    0    [2    /1   ]  12.260860728      0.39768730901
                                4.9987076005      0.2462784943
[INPUT] 0    0    [1    /1   ]  1.1703108158         1
[INPUT] 0    0    [1    /1   ]  0.46474740994        1
[INPUT] 0    0    [1    /1   ]  0.18504536357        1
[INPUT] 1    0    [4    /1   ]  63.274954801      0.0060685103418
                                14.627049379      0.041912575824
                                4.4501223456      0.16153841088
                                1.5275799647      0.35706951311
[INPUT] 1    0    [1    /1   ]  0.52935117943        1
[INPUT] 1    0    [1    /1   ]  0.1747842127         1
[INPUT] 2    0    [1    /1   ]  2.314                1
[INPUT] 2    0    [1    /1   ]  0.645                1
[INPUT] 3    0    [1    /1   ]  1.428                1
[INPUT] N
[INPUT] 0    0    [6    /1   ]  19730.800647      0.00021887984991
                                2957.8958745      0.0016960708803
                                673.22133595      0.0087954603538
                                190.68249494      0.035359382605
                                62.295441898      0.11095789217
                                22.654161182      0.24982972552
[INPUT] 0    0    [2    /1   ]  8.9791477428      0.40623896148
                                3.686300237       0.24338217176
[INPUT] 0    0    [1    /1   ]  0.84660076805        1
[INPUT] 0    0    [1    /1   ]  0.33647133771        1
[INPUT] 0    0    [1    /1   ]  0.13647653675        1
[INPUT] 1    0    [4    /1   ]  49.20038051       0.0055552416751
                                11.346790537      0.038052379723
                                3.4273972411      0.14953671029
                                1.1785525134      0.3494930523
[INPUT] 1    0    [1    /1   ]  0.41642204972        1
[INPUT] 1    0    [1    /1   ]  0.14260826011        1
[INPUT] 2    0    [1    /1   ]  1.654                1
[INPUT] 2    0    [1    /1   ]  0.469                1
[INPUT] 3    0    [1    /1   ]  1.093                1
[INPUT] H
[INPUT] 0    0    [3    /1   ]  34.061341         0.0060251978
                                5.1235746         0.045021094
                                1.1646626         0.20189726
[INPUT] 0    0    [1    /1   ]  0.32723041           1
[INPUT] 0    0    [1    /1   ]  0.10307241           1
[INPUT] 1    0    [1    /1   ]  0.8                  1
[INPUT] C
[INPUT] 0    0    [6    /1   ]  13575.349682      0.00022245814352
                                2035.233368       0.0017232738252
                                463.22562359      0.0089255715314
                                131.20019598      0.035727984502
                                42.853015891      0.11076259931
                                15.584185766      0.24295627626
[INPUT] 0    0    [2    /1   ]  6.2067138508      0.41440263448
                                2.5764896527      0.23744968655
[INPUT] 0    0    [1    /1   ]  0.57696339419        1
[INPUT] 0    0    [1    /1   ]  0.22972831358        1
[INPUT] 0    0    [1    /1   ]  0.095164440028       1
[INPUT] 1    0    [4    /1   ]  34.697232244      0.0053333657805
                                7.9582622826      0.035864109092
                                2.3780826883      0.14215873329
                                0.81433208183     0.34270471845
[INPUT] 1    0    [1    /1   ]  0.28887547253        1
[INPUT] 1    0    [1    /1   ]  0.10056823671        1
[INPUT] 2    0    [1    /1   ]  1.097                1
[INPUT] 2    0    [1    /1   ]  0.318                1
[INPUT] 3    0    [1    /1   ]  0.761                1

nuclear repulsion = 2048.97056790043
number of shells = 370
number of NR pGTOs = 1364
number of NR cGTOs = 932
basis = def2-tzvp
ecp = {}
CPU time:         2.96
RKS
Density fitting turned on
Molecule built
Calculating SCF Energy...


******** <class 'pyscf.df.df_jk.density_fit.<locals>.DFHF'> ********
method = DFHF-RKS-RHF
initial guess = chkfile
damping factor = 0
level_shift factor = 0
DIIS = <class 'pyscf.scf.diis.CDIIS'>
diis_start_cycle = 1
diis_space = 8
SCF conv_tol = 1e-10
SCF conv_tol_grad = None
SCF max_cycles = 50
direct_scf = True
direct_scf_tol = 1e-13
chkfile to save SCF result = 47_Dihydroisobenzofuran_C5_wb97x.chk
max_memory 60000 MB (current use 55 MB)
XC functionals = wb97x
small_rho_cutoff = 1e-07
radial grids: 
    Treutler-Ahlrichs [JCP 102, 346 (1995); DOI:10.1063/1.469408] (M4) radial grids
    
becke partition: Becke, JCP 88, 2547 (1988); DOI:10.1063/1.454033
pruning grids: <function nwchem_prune at 0x7f74cb9c2f28>
grids dens level: 3
symmetrized grids: False
atomic radii adjust function: <function treutler_atomic_radii_adjust at 0x7f74cb9c2ea0>
Set gradient conv threshold to 1e-05
atom C rad-grids = 75, ang-grids = [ 50  50  50  50  50  50  50  50  50  50  50  50  50  50  50  50  50  50
  50  50  50  50  50  86  86  86  86  86  86  86  86  86  86 266 266 266
 266 266 266 266 302 302 302 302 302 302 302 302 302 302 302 302 302 302
 302 302 302 302 302 302 266 266 266 266 266 266 266 266 266 266 266 266
 266 266 266]
atom H rad-grids = 50, ang-grids = [ 50  50  50  50  50  50  50  50  50  50  50  50  50  50  86  86  86  86
 266 266 266 266 302 302 302 302 302 302 302 302 302 302 302 302 302 266
 266 266 266 266 266 266 266 266 266 266 266 266 266 266]
atom O rad-grids = 75, ang-grids = [ 50  50  50  50  50  50  50  50  50  50  50  50  50  50  50  50  50  50
  50  50  50  50  86  86  86  86  86  86  86  86  86 266 266 266 266 266
 266 266 302 302 302 302 302 302 302 302 302 302 302 302 302 302 302 302
 302 302 302 266 266 266 266 266 266 266 266 266 266 266 266 266 266 266
 266 266 266]
atom N rad-grids = 75, ang-grids = [ 50  50  50  50  50  50  50  50  50  50  50  50  50  50  50  50  50  50
  50  50  50  50  50  86  86  86  86  86  86  86  86  86 266 266 266 266
 266 266 266 302 302 302 302 302 302 302 302 302 302 302 302 302 302 302
 302 302 302 302 266 266 266 266 266 266 266 266 266 266 266 266 266 266
 266 266 266]
tot grids = 572460
Drop grids 100794
    CPU time for setting up grids     98.92 sec, wall time      5.96 sec
nelec by numeric integration = 179.9997390378883
    CPU time for vxc    164.32 sec, wall time      9.67 sec
******** <class 'pyscf.df.df.DF'> ********
auxbasis = None
max_memory = 60000
_cderi_to_save = /tmp/job.16219625.hpc/tmplss09kzo
Default auxbasis def2-tzvp-jkfit is used for O def2-tzvp
Default auxbasis def2-tzvp-jkfit is used for N def2-tzvp
Default auxbasis def2-tzvp-jkfit is used for H def2-tzvp
Default auxbasis def2-tzvp-jkfit is used for C def2-tzvp
num shells = 776, num cGTOs = 2332
size of aux basis 2332
int3c2e [1/1], AO [0:370], nrow = 434778
    CPU time for cholesky_eri    152.37 sec, wall time     25.77 sec
    CPU time for df vj and vk    503.00 sec, wall time     49.04 sec
Create RSH-DF object <pyscf.df.df.DF object at 0x7f74e6197630> for omega=0.3
******** <class 'pyscf.df.df.DF'> ********
auxbasis = None
max_memory = 60000
_cderi_to_save = /tmp/job.16219625.hpc/tmpb2_je21b
Default auxbasis def2-tzvp-jkfit is used for O def2-tzvp
Default auxbasis def2-tzvp-jkfit is used for N def2-tzvp
Default auxbasis def2-tzvp-jkfit is used for H def2-tzvp
Default auxbasis def2-tzvp-jkfit is used for C def2-tzvp
num shells = 776, num cGTOs = 2332
size of aux basis 1856
int3c2e [1/1], AO [0:370], nrow = 434778
    CPU time for cholesky_eri    245.53 sec, wall time     17.51 sec
    CPU time for df vj and vk    532.36 sec, wall time     33.36 sec
E1 = -5501.597006873044  Ecoul = 2548.734042305583  Exc = -153.3356247565142
init E= -1057.22802142354
cond(S) = 1636224.8822484282
    CPU time for initialize scf   1306.72 sec, wall time     98.70 sec
  HOMO = -0.247737549651509  LUMO = -0.00134718825266591
  mo_energy =
[-1.92460609e+01 -1.44163956e+01 -1.03311354e+01 -1.03247251e+01
 -1.03050605e+01 -1.02941200e+01 -1.02936325e+01 -1.02842535e+01
 -1.02829919e+01 -1.02797924e+01 -1.02789714e+01 -1.02765950e+01
 -1.02755292e+01 -1.02739859e+01 -1.02642883e+01 -1.02619029e+01
 -1.02614092e+01 -1.02613564e+01 -1.02599144e+01 -1.02593711e+01
 -1.02589402e+01 -1.02583268e+01 -1.02571386e+01 -1.02551984e+01
 -1.02534741e+01 -1.02523333e+01 -1.22176078e+00 -1.08172366e+00
 -1.00258472e+00 -9.85178359e-01 -9.78249273e-01 -9.40350894e-01
 -9.14842632e-01 -9.00101377e-01 -8.89908219e-01 -8.76759244e-01
 -8.68687640e-01 -8.60897359e-01 -8.49395153e-01 -8.33083364e-01
 -7.88899248e-01 -7.65320894e-01 -7.49228005e-01 -7.33041558e-01
 -7.23809026e-01 -7.13559344e-01 -7.06613005e-01 -6.83766644e-01
 -6.73799322e-01 -6.43272150e-01 -6.33414697e-01 -6.15471034e-01
 -6.04640814e-01 -5.93089578e-01 -5.87585805e-01 -5.82175801e-01
 -5.75282061e-01 -5.73084913e-01 -5.69628795e-01 -5.60372896e-01
 -5.50820338e-01 -5.47574480e-01 -5.40518715e-01 -5.28661460e-01
 -5.24323624e-01 -5.18453469e-01 -5.18015728e-01 -5.10774263e-01
 -5.03257695e-01 -4.92395051e-01 -4.90392437e-01 -4.86848731e-01
 -4.86478975e-01 -4.84359377e-01 -4.78965471e-01 -4.73666384e-01
 -4.61404773e-01 -4.51879718e-01 -4.39775693e-01 -4.30490867e-01
 -4.28428746e-01 -4.25327067e-01 -3.97052362e-01 -3.73938008e-01
 -3.62593316e-01 -3.43479489e-01 -3.41666780e-01 -3.34200858e-01
 -2.91571010e-01 -2.47737550e-01 -1.34718825e-03  3.01928450e-02
  7.01336410e-02  7.23103081e-02  7.90975061e-02  9.00623046e-02
  1.08153561e-01  1.27492054e-01  1.27995561e-01  1.34636395e-01
  1.40927105e-01  1.44075205e-01  1.49078578e-01  1.54963405e-01
  1.59145954e-01  1.72676273e-01  1.73479167e-01  1.78128277e-01
  1.80506624e-01  1.81840462e-01  1.85671779e-01  1.92851993e-01
  1.96900213e-01  2.00462425e-01  2.07019483e-01  2.07566723e-01
  2.12744560e-01  2.16609423e-01  2.24102422e-01  2.24448119e-01
  2.28894952e-01  2.36743153e-01  2.38922807e-01  2.42695445e-01
  2.45565050e-01  2.47250779e-01  2.58796724e-01  2.59828352e-01
  2.63275156e-01  2.64283864e-01  2.67835870e-01  2.76332858e-01
  2.77493374e-01  2.87319406e-01  2.91778053e-01  2.95089326e-01
  3.00721508e-01  3.00979500e-01  3.01417801e-01  3.07754722e-01
  3.10526267e-01  3.11918128e-01  3.13663968e-01  3.17713430e-01
  3.24097908e-01  3.24863231e-01  3.27240665e-01  3.39893671e-01
  3.45420767e-01  3.46763270e-01  3.53052750e-01  3.53556203e-01
  3.59215150e-01  3.59315431e-01  3.67459441e-01  3.70793974e-01
  3.72691791e-01  3.75357434e-01  3.81658984e-01  3.84338084e-01
  3.89677976e-01  3.92367575e-01  4.00929747e-01  4.03094351e-01
  4.06080208e-01  4.06671521e-01  4.11376143e-01  4.18275781e-01
  4.23219782e-01  4.26000163e-01  4.29201074e-01  4.31070669e-01
  4.34259340e-01  4.35517904e-01  4.41053367e-01  4.44849906e-01
  4.46042225e-01  4.48410337e-01  4.49383806e-01  4.56648769e-01
  4.61188137e-01  4.62477625e-01  4.67333113e-01  4.73247780e-01
  4.74814514e-01  4.79975861e-01  4.83272053e-01  4.87224765e-01
  4.88201583e-01  4.94162863e-01  4.95600521e-01  4.97153944e-01
  5.02605857e-01  5.06962271e-01  5.10580872e-01  5.16884632e-01
  5.18134558e-01  5.21816496e-01  5.31392291e-01  5.34510908e-01
  5.37319863e-01  5.41096686e-01  5.43905056e-01  5.48965172e-01
  5.51024789e-01  5.56142058e-01  5.60525123e-01  5.64118967e-01
  5.64884105e-01  5.69914243e-01  5.70764052e-01  5.75197431e-01
  5.76705276e-01  5.82141478e-01  5.85445157e-01  5.91517237e-01
  5.92929832e-01  6.01059757e-01  6.01420236e-01  6.08207133e-01
  6.11755315e-01  6.13611223e-01  6.18258799e-01  6.26953005e-01
  6.32108176e-01  6.37792484e-01  6.43718585e-01  6.58067303e-01
  6.62365754e-01  6.65043756e-01  6.67755657e-01  6.76660361e-01
  6.84978992e-01  6.85773299e-01  6.88169308e-01  6.90680541e-01
  6.97591541e-01  7.02692497e-01  7.11382045e-01  7.19363063e-01
  7.22539183e-01  7.24107408e-01  7.32864093e-01  7.35418379e-01
  7.41732268e-01  7.45892582e-01  7.50149691e-01  7.58253388e-01
  7.61639554e-01  7.64740016e-01  7.69970424e-01  7.73745348e-01
  7.77049946e-01  7.82692475e-01  7.85781212e-01  7.88168278e-01
  7.90767300e-01  7.97882273e-01  7.99830774e-01  8.05412598e-01
  8.12289054e-01  8.20723311e-01  8.23839447e-01  8.26249417e-01
  8.28160818e-01  8.31007004e-01  8.40528148e-01  8.46924923e-01
  8.48707318e-01  8.50832064e-01  8.57819793e-01  8.62311662e-01
  8.64779087e-01  8.66198197e-01  8.73217489e-01  8.77497417e-01
  8.83816432e-01  8.87177689e-01  8.91077855e-01  8.97085368e-01
  9.09392514e-01  9.12281912e-01  9.22522940e-01  9.27648388e-01
  9.31620647e-01  9.35095169e-01  9.43413347e-01  9.44202752e-01
  9.51970308e-01  9.52948374e-01  9.60070198e-01  9.64885042e-01
  9.71729555e-01  9.74363956e-01  9.83164409e-01  9.86748969e-01
  9.90325375e-01  1.00287609e+00  1.00530821e+00  1.01195700e+00
  1.01496684e+00  1.02158838e+00  1.02462986e+00  1.03394391e+00
  1.04874180e+00  1.05748275e+00  1.06024343e+00  1.06945647e+00
  1.07033227e+00  1.07828447e+00  1.08964267e+00  1.09307261e+00
  1.10112695e+00  1.10400237e+00  1.11049266e+00  1.11324023e+00
  1.12671004e+00  1.13881950e+00  1.14536172e+00  1.14913303e+00
  1.15041519e+00  1.16019471e+00  1.16408554e+00  1.17371928e+00
  1.18494508e+00  1.18647452e+00  1.19514090e+00  1.20135895e+00
  1.20598522e+00  1.20959089e+00  1.22109568e+00  1.22292653e+00
  1.23998762e+00  1.25145254e+00  1.25640223e+00  1.26203039e+00
  1.27307207e+00  1.28474626e+00  1.28824403e+00  1.29542200e+00
  1.30269528e+00  1.31017763e+00  1.31566252e+00  1.31947240e+00
  1.32437744e+00  1.33082644e+00  1.33190587e+00  1.33715490e+00
  1.33860173e+00  1.34574725e+00  1.34701021e+00  1.35626930e+00
  1.36061709e+00  1.36447598e+00  1.37324348e+00  1.37501137e+00
  1.39193163e+00  1.39512700e+00  1.40058491e+00  1.40562098e+00
  1.40841407e+00  1.41750247e+00  1.42044440e+00  1.42783161e+00
  1.44049526e+00  1.44812925e+00  1.45286881e+00  1.45859279e+00
  1.46777646e+00  1.47247132e+00  1.48373104e+00  1.48674510e+00
  1.49793004e+00  1.50194838e+00  1.50584459e+00  1.51518806e+00
  1.52470650e+00  1.53004417e+00  1.53992371e+00  1.54785645e+00
  1.55132824e+00  1.55613302e+00  1.55968277e+00  1.56682587e+00
  1.57478832e+00  1.57641485e+00  1.58839771e+00  1.59850126e+00
  1.60049263e+00  1.60422716e+00  1.61038430e+00  1.61154027e+00
  1.62161156e+00  1.62311127e+00  1.62960637e+00  1.63323330e+00
  1.63791515e+00  1.64323481e+00  1.64817138e+00  1.64852286e+00
  1.65465833e+00  1.65669899e+00  1.66619255e+00  1.66814670e+00
  1.68183109e+00  1.68767777e+00  1.69604919e+00  1.70032064e+00
  1.70533777e+00  1.70710376e+00  1.71064103e+00  1.71631073e+00
  1.72510696e+00  1.73143038e+00  1.73266790e+00  1.73441510e+00
  1.73842941e+00  1.74295071e+00  1.76215863e+00  1.76777453e+00
  1.77144819e+00  1.77380447e+00  1.77954973e+00  1.78283759e+00
  1.79174934e+00  1.79418458e+00  1.80506827e+00  1.80692264e+00
  1.81039892e+00  1.81638356e+00  1.82184381e+00  1.82720946e+00
  1.83548206e+00  1.83877463e+00  1.84203475e+00  1.85668747e+00
  1.86640991e+00  1.87070443e+00  1.88407991e+00  1.89405294e+00
  1.90339553e+00  1.90933387e+00  1.91700918e+00  1.92687324e+00
  1.95090662e+00  1.95806893e+00  1.96061327e+00  1.97136993e+00
  1.97638997e+00  1.98260222e+00  1.98765509e+00  1.99670638e+00
  2.00082423e+00  2.01622550e+00  2.02431631e+00  2.02927522e+00
  2.03348178e+00  2.05029190e+00  2.05724812e+00  2.06352845e+00
  2.06618596e+00  2.06836786e+00  2.07416518e+00  2.08722165e+00
  2.09492177e+00  2.10302151e+00  2.11020407e+00  2.11761545e+00
  2.12980154e+00  2.14516399e+00  2.14812701e+00  2.15683353e+00
  2.15968485e+00  2.16642985e+00  2.17132462e+00  2.17192989e+00
  2.17637727e+00  2.17720774e+00  2.19251812e+00  2.19542223e+00
  2.20350864e+00  2.21230741e+00  2.21572455e+00  2.22221174e+00
  2.22631393e+00  2.23884992e+00  2.25144167e+00  2.26080443e+00
  2.26826698e+00  2.26876066e+00  2.27356025e+00  2.28581093e+00
  2.29421163e+00  2.29826498e+00  2.30405876e+00  2.31656280e+00
  2.32513542e+00  2.33340037e+00  2.33940835e+00  2.35584331e+00
  2.36662105e+00  2.37161329e+00  2.37728368e+00  2.38849737e+00
  2.39486158e+00  2.39834788e+00  2.41299970e+00  2.41876065e+00
  2.42281084e+00  2.42897826e+00  2.43337847e+00  2.44527225e+00
  2.44895258e+00  2.45611675e+00  2.46653653e+00  2.48017907e+00
  2.49269690e+00  2.49978750e+00  2.50984624e+00  2.52077059e+00
  2.52621417e+00  2.54758680e+00  2.55738166e+00  2.56728817e+00
  2.57876420e+00  2.58085151e+00  2.58615023e+00  2.59015913e+00
  2.59520255e+00  2.60761228e+00  2.61292570e+00  2.61602100e+00
  2.61867518e+00  2.63454783e+00  2.64062793e+00  2.64736271e+00
  2.64879237e+00  2.65243335e+00  2.66575284e+00  2.67674535e+00
  2.68344571e+00  2.68788027e+00  2.69860434e+00  2.70359018e+00
  2.70682869e+00  2.71498543e+00  2.71718680e+00  2.72814090e+00
  2.73395234e+00  2.73595823e+00  2.74264570e+00  2.74564702e+00
  2.74969235e+00  2.75708689e+00  2.75912090e+00  2.76592537e+00
  2.76960752e+00  2.77832092e+00  2.78622540e+00  2.79225050e+00
  2.79701463e+00  2.79768910e+00  2.80166101e+00  2.80611870e+00
  2.81463059e+00  2.82379336e+00  2.82515296e+00  2.82761939e+00
  2.83779876e+00  2.84397232e+00  2.84510205e+00  2.84951838e+00
  2.85342195e+00  2.85606704e+00  2.85998171e+00  2.86492427e+00
  2.87136302e+00  2.87246535e+00  2.88128153e+00  2.88961788e+00
  2.89073663e+00  2.89195758e+00  2.89555418e+00  2.89692357e+00
  2.90050431e+00  2.90350249e+00  2.91202689e+00  2.92020973e+00
  2.92145976e+00  2.93052094e+00  2.93300734e+00  2.93864248e+00
  2.94805434e+00  2.95159077e+00  2.95567880e+00  2.96532698e+00
  2.96642204e+00  2.96980120e+00  2.98260544e+00  2.98917648e+00
  2.99201829e+00  2.99426754e+00  3.00292484e+00  3.00396977e+00
  3.01269987e+00  3.01558528e+00  3.02305485e+00  3.02492233e+00
  3.03537735e+00  3.03888818e+00  3.04649427e+00  3.05820784e+00
  3.06368788e+00  3.07120748e+00  3.07524003e+00  3.08132753e+00
  3.08310626e+00  3.09366862e+00  3.09819620e+00  3.10539831e+00
  3.11815701e+00  3.12204715e+00  3.12794269e+00  3.13786041e+00
  3.14935337e+00  3.15009349e+00  3.15481189e+00  3.15858591e+00
  3.17106301e+00  3.17686879e+00  3.19315945e+00  3.20237346e+00
  3.20363499e+00  3.21040677e+00  3.21503045e+00  3.22031689e+00
  3.22252041e+00  3.22526131e+00  3.22610271e+00  3.23062952e+00
  3.23706284e+00  3.24052712e+00  3.24447908e+00  3.25223052e+00
  3.25744679e+00  3.26567785e+00  3.26821559e+00  3.27266784e+00
  3.27682342e+00  3.28207726e+00  3.28566873e+00  3.28700109e+00
  3.29164851e+00  3.29927963e+00  3.30255503e+00  3.30541444e+00
  3.30846168e+00  3.31276363e+00  3.31386203e+00  3.31813543e+00
  3.32351004e+00  3.32540538e+00  3.33280856e+00  3.34028371e+00
  3.34897879e+00  3.36123753e+00  3.37059081e+00  3.37306566e+00
  3.37900545e+00  3.38228619e+00  3.38715291e+00  3.39082243e+00
  3.39458796e+00  3.39986926e+00  3.40584128e+00  3.41072336e+00
  3.41391288e+00  3.41790127e+00  3.42051807e+00  3.42468169e+00
  3.43729836e+00  3.44615258e+00  3.45270916e+00  3.45671281e+00
  3.45941206e+00  3.46498120e+00  3.46981505e+00  3.47244125e+00
  3.48107975e+00  3.48429513e+00  3.48745673e+00  3.49270288e+00
  3.49653983e+00  3.49974919e+00  3.50273070e+00  3.50734596e+00
  3.51184788e+00  3.51395179e+00  3.52185438e+00  3.52333870e+00
  3.52956464e+00  3.53493636e+00  3.53790225e+00  3.54307290e+00
  3.55175124e+00  3.55767550e+00  3.56219374e+00  3.56899879e+00
  3.57336780e+00  3.57844242e+00  3.58718966e+00  3.59142447e+00
  3.59848576e+00  3.60853561e+00  3.61083844e+00  3.61613688e+00
  3.61843329e+00  3.62447389e+00  3.62874175e+00  3.63161436e+00
  3.63616236e+00  3.64093694e+00  3.64725690e+00  3.65193723e+00
  3.65703872e+00  3.66248001e+00  3.66282068e+00  3.67461447e+00
  3.67958716e+00  3.69156495e+00  3.69555575e+00  3.70700232e+00
  3.70836290e+00  3.70968905e+00  3.71543987e+00  3.72721285e+00
  3.73497353e+00  3.74305774e+00  3.75355968e+00  3.75893368e+00
  3.79684667e+00  3.79928222e+00  3.81275298e+00  3.82629891e+00
  3.83159493e+00  3.83750002e+00  3.84988388e+00  3.86134450e+00
  3.86474521e+00  3.87166577e+00  3.87781925e+00  3.88143316e+00
  3.88843613e+00  3.89831248e+00  3.90388016e+00  3.91846870e+00
  3.95782895e+00  3.96540948e+00  3.97479340e+00  3.99892023e+00
  4.00454978e+00  4.01307096e+00  4.02160888e+00  4.03781455e+00
  4.04066351e+00  4.04806547e+00  4.06017155e+00  4.06975609e+00
  4.07138502e+00  4.08769899e+00  4.10354738e+00  4.11163505e+00
  4.11719102e+00  4.13173712e+00  4.14697199e+00  4.15763462e+00
  4.16705897e+00  4.17203964e+00  4.18236667e+00  4.18327974e+00
  4.19715653e+00  4.19927660e+00  4.20980455e+00  4.22368186e+00
  4.22869936e+00  4.23243760e+00  4.24495486e+00  4.24575526e+00
  4.25011260e+00  4.25946644e+00  4.25956418e+00  4.27129181e+00
  4.27526022e+00  4.28492898e+00  4.29279141e+00  4.29507162e+00
  4.30413744e+00  4.30529428e+00  4.31271717e+00  4.32584913e+00
  4.32884881e+00  4.33430521e+00  4.34123481e+00  4.35180494e+00
  4.36013867e+00  4.36945558e+00  4.37999496e+00  4.38168396e+00
  4.39421924e+00  4.40203234e+00  4.41288534e+00  4.41943809e+00
  4.42347356e+00  4.45014273e+00  4.45785763e+00  4.47269075e+00
  4.49447455e+00  4.49858541e+00  4.52532879e+00  4.52768987e+00
  4.52874398e+00  4.54967498e+00  4.55228132e+00  4.55784527e+00
  4.57583875e+00  4.60041627e+00  4.60764597e+00  4.64100473e+00
  4.65459853e+00  4.67881743e+00  4.72141004e+00  4.72420443e+00
  4.73553621e+00  4.75797271e+00  4.76263885e+00  4.76684638e+00
  4.78381438e+00  4.80837996e+00  4.82357232e+00  4.83146897e+00
  4.84111998e+00  4.85459362e+00  4.86927640e+00  4.89582419e+00
  4.91585767e+00  4.92435045e+00  4.95959670e+00  4.96992554e+00
  5.00297052e+00  5.00995264e+00  5.01874579e+00  5.02182101e+00
  5.04056642e+00  5.05071707e+00  5.06205581e+00  5.09185193e+00
  5.10262800e+00  5.11764743e+00  5.12457847e+00  5.12834737e+00
  5.15343681e+00  5.16287447e+00  5.19743748e+00  5.23014657e+00
  5.24211708e+00  5.26126494e+00  5.28551926e+00  5.28856725e+00
  5.29747855e+00  5.30224595e+00  5.33298845e+00  5.33609755e+00
  5.35499570e+00  5.41542227e+00  5.41985579e+00  5.46787671e+00
  5.50875964e+00  5.51596894e+00  5.52316102e+00  5.54148007e+00
  5.56120409e+00  5.57602633e+00  5.59404245e+00  5.61486808e+00
  5.64200487e+00  5.69369673e+00  5.72682196e+00  5.75761590e+00
  5.80712165e+00  5.85055589e+00  5.86130043e+00  5.88198026e+00
  5.90271664e+00  5.90636570e+00  5.98354778e+00  6.00867208e+00
  6.05738841e+00  6.17137407e+00  6.25544486e+00  6.51412140e+00
  6.78947695e+00  6.81071482e+00  6.93534094e+00  7.09723082e+00
  7.55870496e+00  7.56510214e+00  2.21592529e+01  2.23582889e+01
  2.24044141e+01  2.24524457e+01  2.25007456e+01  2.26027255e+01
  2.26275960e+01  2.26316917e+01  2.26602421e+01  2.27266808e+01
  2.27516766e+01  2.27608761e+01  2.27850901e+01  2.28049051e+01
  2.28335271e+01  2.28987265e+01  2.29334685e+01  2.29913134e+01
  2.30713029e+01  2.31310570e+01  2.32439190e+01  2.33750570e+01
  2.34972415e+01  2.38046639e+01  3.29183887e+01  4.44594375e+01]
nelec by numeric integration = 179.99973903794373
    CPU time for vxc    122.01 sec, wall time      7.11 sec
    CPU time for df vj and vk    345.18 sec, wall time     21.80 sec
    CPU time for df vj and vk    272.33 sec, wall time     14.04 sec
E1 = -5501.597033829194  Ecoul = 2548.7340704570306  Exc = -153.33562595180993
cycle= 1 E= -1057.22802142354  delta_E= 2.27e-12  |g|= 3.03e-06  |ddm|= 6.38e-06
    CPU time for cycle= 1    744.71 sec, wall time     43.48 sec
  HOMO = -0.247737323773596  LUMO = -0.00134701415495087
  mo_energy =
[-1.92460584e+01 -1.44163949e+01 -1.03311346e+01 -1.03247243e+01
 -1.03050611e+01 -1.02941197e+01 -1.02936322e+01 -1.02842537e+01
 -1.02829924e+01 -1.02797925e+01 -1.02789711e+01 -1.02765948e+01
 -1.02755292e+01 -1.02739849e+01 -1.02642877e+01 -1.02619028e+01
 -1.02614091e+01 -1.02613556e+01 -1.02599153e+01 -1.02593717e+01
 -1.02589404e+01 -1.02583276e+01 -1.02571377e+01 -1.02551973e+01
 -1.02534755e+01 -1.02523339e+01 -1.22175960e+00 -1.08172352e+00
 -1.00258467e+00 -9.85178259e-01 -9.78249137e-01 -9.40350640e-01
 -9.14842430e-01 -9.00101280e-01 -8.89908177e-01 -8.76759323e-01
 -8.68687653e-01 -8.60897182e-01 -8.49395038e-01 -8.33083199e-01
 -7.88899110e-01 -7.65320746e-01 -7.49227864e-01 -7.33041291e-01
 -7.23808964e-01 -7.13559290e-01 -7.06612898e-01 -6.83766484e-01
 -6.73799200e-01 -6.43272076e-01 -6.33414589e-01 -6.15470817e-01
 -6.04640742e-01 -5.93089388e-01 -5.87585662e-01 -5.82175697e-01
 -5.75281816e-01 -5.73084329e-01 -5.69628730e-01 -5.60372820e-01
 -5.50820266e-01 -5.47574353e-01 -5.40518581e-01 -5.28661470e-01
 -5.24323570e-01 -5.18453449e-01 -5.18015666e-01 -5.10774209e-01
 -5.03257594e-01 -4.92394910e-01 -4.90392226e-01 -4.86848638e-01
 -4.86478851e-01 -4.84359150e-01 -4.78965330e-01 -4.73666296e-01
 -4.61404548e-01 -4.51879650e-01 -4.39775644e-01 -4.30490659e-01
 -4.28428559e-01 -4.25326951e-01 -3.97052151e-01 -3.73937761e-01
 -3.62593285e-01 -3.43479581e-01 -3.41666798e-01 -3.34200697e-01
 -2.91570868e-01 -2.47737324e-01 -1.34701415e-03  3.01929925e-02
  7.01336285e-02  7.23102980e-02  7.90975471e-02  9.00623744e-02
  1.08153588e-01  1.27492107e-01  1.27995581e-01  1.34636436e-01
  1.40927120e-01  1.44075316e-01  1.49078609e-01  1.54963345e-01
  1.59145962e-01  1.72676425e-01  1.73479189e-01  1.78128419e-01
  1.80506808e-01  1.81840558e-01  1.85671748e-01  1.92852083e-01
  1.96900200e-01  2.00462415e-01  2.07019506e-01  2.07566845e-01
  2.12744648e-01  2.16609452e-01  2.24102528e-01  2.24448171e-01
  2.28895096e-01  2.36743210e-01  2.38922868e-01  2.42695526e-01
  2.45565123e-01  2.47250822e-01  2.58796872e-01  2.59828463e-01
  2.63275261e-01  2.64283959e-01  2.67836019e-01  2.76332958e-01
  2.77493398e-01  2.87319490e-01  2.91778103e-01  2.95089548e-01
  3.00721477e-01  3.00979522e-01  3.01417924e-01  3.07754809e-01
  3.10526304e-01  3.11918185e-01  3.13663930e-01  3.17713506e-01
  3.24097981e-01  3.24863272e-01  3.27240673e-01  3.39893721e-01
  3.45420862e-01  3.46763393e-01  3.53052798e-01  3.53556284e-01
  3.59215243e-01  3.59315540e-01  3.67459578e-01  3.70794080e-01
  3.72691827e-01  3.75357482e-01  3.81658991e-01  3.84338110e-01
  3.89678070e-01  3.92367703e-01  4.00929802e-01  4.03094427e-01
  4.06080372e-01  4.06671593e-01  4.11376306e-01  4.18275862e-01
  4.23219866e-01  4.26000266e-01  4.29201137e-01  4.31070765e-01
  4.34259433e-01  4.35518034e-01  4.41053471e-01  4.44849975e-01
  4.46042361e-01  4.48410365e-01  4.49383845e-01  4.56648843e-01
  4.61188189e-01  4.62477711e-01  4.67333135e-01  4.73247780e-01
  4.74814642e-01  4.79975940e-01  4.83272077e-01  4.87224829e-01
  4.88201637e-01  4.94162936e-01  4.95600560e-01  4.97154028e-01
  5.02605812e-01  5.06962272e-01  5.10580895e-01  5.16884646e-01
  5.18134576e-01  5.21816533e-01  5.31392360e-01  5.34511034e-01
  5.37319906e-01  5.41096783e-01  5.43905117e-01  5.48965235e-01
  5.51024890e-01  5.56142188e-01  5.60525272e-01  5.64119041e-01
  5.64884135e-01  5.69914257e-01  5.70764123e-01  5.75197465e-01
  5.76705332e-01  5.82141526e-01  5.85445225e-01  5.91517265e-01
  5.92929918e-01  6.01059769e-01  6.01420299e-01  6.08207230e-01
  6.11755441e-01  6.13611275e-01  6.18258895e-01  6.26953067e-01
  6.32108245e-01  6.37792570e-01  6.43718657e-01  6.58067426e-01
  6.62365835e-01  6.65043885e-01  6.67755739e-01  6.76660542e-01
  6.84979076e-01  6.85773431e-01  6.88169397e-01  6.90680659e-01
  6.97591657e-01  7.02692628e-01  7.11382175e-01  7.19363195e-01
  7.22539263e-01  7.24107541e-01  7.32864173e-01  7.35418485e-01
  7.41732356e-01  7.45892664e-01  7.50149839e-01  7.58253476e-01
  7.61639591e-01  7.64740124e-01  7.69970498e-01  7.73745475e-01
  7.77050034e-01  7.82692571e-01  7.85781342e-01  7.88168362e-01
  7.90767422e-01  7.97882419e-01  7.99830868e-01  8.05412786e-01
  8.12289080e-01  8.20723451e-01  8.23839568e-01  8.26249531e-01
  8.28160936e-01  8.31007101e-01  8.40528225e-01  8.46925026e-01
  8.48707452e-01  8.50832152e-01  8.57819874e-01  8.62311707e-01
  8.64779179e-01  8.66198298e-01  8.73217604e-01  8.77497506e-01
  8.83816545e-01  8.87177813e-01  8.91077977e-01  8.97085431e-01
  9.09392616e-01  9.12282014e-01  9.22523013e-01  9.27648460e-01
  9.31620748e-01  9.35095298e-01  9.43413466e-01  9.44202883e-01
  9.51970443e-01  9.52948506e-01  9.60070271e-01  9.64885137e-01
  9.71729663e-01  9.74364045e-01  9.83164539e-01  9.86749011e-01
  9.90325490e-01  1.00287618e+00  1.00530831e+00  1.01195710e+00
  1.01496702e+00  1.02158849e+00  1.02462998e+00  1.03394396e+00
  1.04874192e+00  1.05748285e+00  1.06024352e+00  1.06945659e+00
  1.07033236e+00  1.07828453e+00  1.08964278e+00  1.09307269e+00
  1.10112702e+00  1.10400239e+00  1.11049277e+00  1.11324033e+00
  1.12671014e+00  1.13881955e+00  1.14536177e+00  1.14913309e+00
  1.15041526e+00  1.16019479e+00  1.16408564e+00  1.17371937e+00
  1.18494508e+00  1.18647456e+00  1.19514100e+00  1.20135905e+00
  1.20598526e+00  1.20959091e+00  1.22109574e+00  1.22292665e+00
  1.23998774e+00  1.25145261e+00  1.25640229e+00  1.26203049e+00
  1.27307208e+00  1.28474633e+00  1.28824414e+00  1.29542212e+00
  1.30269534e+00  1.31017771e+00  1.31566259e+00  1.31947248e+00
  1.32437752e+00  1.33082651e+00  1.33190596e+00  1.33715495e+00
  1.33860178e+00  1.34574732e+00  1.34701030e+00  1.35626938e+00
  1.36061713e+00  1.36447607e+00  1.37324347e+00  1.37501145e+00
  1.39193177e+00  1.39512705e+00  1.40058493e+00  1.40562110e+00
  1.40841421e+00  1.41750260e+00  1.42044455e+00  1.42783172e+00
  1.44049538e+00  1.44812934e+00  1.45286904e+00  1.45859292e+00
  1.46777657e+00  1.47247150e+00  1.48373120e+00  1.48674525e+00
  1.49793012e+00  1.50194842e+00  1.50584468e+00  1.51518817e+00
  1.52470660e+00  1.53004430e+00  1.53992376e+00  1.54785651e+00
  1.55132831e+00  1.55613312e+00  1.55968289e+00  1.56682598e+00
  1.57478837e+00  1.57641481e+00  1.58839763e+00  1.59850134e+00
  1.60049269e+00  1.60422725e+00  1.61038433e+00  1.61154038e+00
  1.62161162e+00  1.62311131e+00  1.62960634e+00  1.63323340e+00
  1.63791518e+00  1.64323486e+00  1.64817142e+00  1.64852290e+00
  1.65465841e+00  1.65669906e+00  1.66619263e+00  1.66814681e+00
  1.68183119e+00  1.68767781e+00  1.69604922e+00  1.70032070e+00
  1.70533783e+00  1.70710382e+00  1.71064113e+00  1.71631076e+00
  1.72510704e+00  1.73143044e+00  1.73266805e+00  1.73441516e+00
  1.73842951e+00  1.74295080e+00  1.76215872e+00  1.76777464e+00
  1.77144820e+00  1.77380453e+00  1.77954975e+00  1.78283761e+00
  1.79174943e+00  1.79418461e+00  1.80506830e+00  1.80692269e+00
  1.81039898e+00  1.81638353e+00  1.82184392e+00  1.82720953e+00
  1.83548213e+00  1.83877469e+00  1.84203479e+00  1.85668755e+00
  1.86641008e+00  1.87070453e+00  1.88408006e+00  1.89405316e+00
  1.90339569e+00  1.90933408e+00  1.91700937e+00  1.92687335e+00
  1.95090670e+00  1.95806902e+00  1.96061343e+00  1.97137001e+00
  1.97639001e+00  1.98260222e+00  1.98765516e+00  1.99670648e+00
  2.00082437e+00  2.01622565e+00  2.02431645e+00  2.02927532e+00
  2.03348191e+00  2.05029203e+00  2.05724818e+00  2.06352854e+00
  2.06618603e+00  2.06836799e+00  2.07416523e+00  2.08722165e+00
  2.09492183e+00  2.10302166e+00  2.11020420e+00  2.11761568e+00
  2.12980189e+00  2.14516423e+00  2.14812724e+00  2.15683367e+00
  2.15968495e+00  2.16643002e+00  2.17132475e+00  2.17193005e+00
  2.17637740e+00  2.17720787e+00  2.19251823e+00  2.19542235e+00
  2.20350870e+00  2.21230759e+00  2.21572468e+00  2.22221183e+00
  2.22631406e+00  2.23885010e+00  2.25144176e+00  2.26080459e+00
  2.26826713e+00  2.26876071e+00  2.27356031e+00  2.28581099e+00
  2.29421170e+00  2.29826505e+00  2.30405889e+00  2.31656290e+00
  2.32513584e+00  2.33340045e+00  2.33940844e+00  2.35584311e+00
  2.36662109e+00  2.37161344e+00  2.37728377e+00  2.38849760e+00
  2.39486192e+00  2.39834809e+00  2.41299980e+00  2.41876073e+00
  2.42281098e+00  2.42897836e+00  2.43337853e+00  2.44527236e+00
  2.44895267e+00  2.45611698e+00  2.46653662e+00  2.48017922e+00
  2.49269698e+00  2.49978758e+00  2.50984627e+00  2.52077075e+00
  2.52621423e+00  2.54758691e+00  2.55738180e+00  2.56728828e+00
  2.57876426e+00  2.58085159e+00  2.58615031e+00  2.59015929e+00
  2.59520264e+00  2.60761241e+00  2.61292577e+00  2.61602107e+00
  2.61867530e+00  2.63454788e+00  2.64062795e+00  2.64736284e+00
  2.64879243e+00  2.65243341e+00  2.66575282e+00  2.67674540e+00
  2.68344575e+00  2.68788039e+00  2.69860442e+00  2.70359026e+00
  2.70682880e+00  2.71498544e+00  2.71718684e+00  2.72814096e+00
  2.73395238e+00  2.73595827e+00  2.74264579e+00  2.74564707e+00
  2.74969233e+00  2.75708686e+00  2.75912092e+00  2.76592537e+00
  2.76960760e+00  2.77832095e+00  2.78622548e+00  2.79225062e+00
  2.79701472e+00  2.79768920e+00  2.80166112e+00  2.80611881e+00
  2.81463072e+00  2.82379333e+00  2.82515302e+00  2.82761936e+00
  2.83779890e+00  2.84397237e+00  2.84510216e+00  2.84951856e+00
  2.85342199e+00  2.85606718e+00  2.85998176e+00  2.86492438e+00
  2.87136312e+00  2.87246550e+00  2.88128162e+00  2.88961801e+00
  2.89073675e+00  2.89195768e+00  2.89555427e+00  2.89692361e+00
  2.90050444e+00  2.90350255e+00  2.91202702e+00  2.92020984e+00
  2.92145989e+00  2.93052101e+00  2.93300745e+00  2.93864241e+00
  2.94805433e+00  2.95159076e+00  2.95567888e+00  2.96532706e+00
  2.96642212e+00  2.96980129e+00  2.98260553e+00  2.98917654e+00
  2.99201832e+00  2.99426757e+00  3.00292494e+00  3.00397002e+00
  3.01269991e+00  3.01558538e+00  3.02305499e+00  3.02492238e+00
  3.03537754e+00  3.03888833e+00  3.04649449e+00  3.05820797e+00
  3.06368803e+00  3.07120768e+00  3.07524016e+00  3.08132768e+00
  3.08310642e+00  3.09366875e+00  3.09819635e+00  3.10539849e+00
  3.11815719e+00  3.12204733e+00  3.12794282e+00  3.13786031e+00
  3.14935348e+00  3.15009345e+00  3.15481196e+00  3.15858585e+00
  3.17106321e+00  3.17686893e+00  3.19315950e+00  3.20237363e+00
  3.20363515e+00  3.21040687e+00  3.21503054e+00  3.22031701e+00
  3.22252052e+00  3.22526143e+00  3.22610282e+00  3.23062963e+00
  3.23706295e+00  3.24052719e+00  3.24447912e+00  3.25223060e+00
  3.25744693e+00  3.26567789e+00  3.26821559e+00  3.27266786e+00
  3.27682349e+00  3.28207738e+00  3.28566875e+00  3.28700116e+00
  3.29164857e+00  3.29927975e+00  3.30255514e+00  3.30541452e+00
  3.30846184e+00  3.31276373e+00  3.31386214e+00  3.31813558e+00
  3.32351015e+00  3.32540547e+00  3.33280865e+00  3.34028384e+00
  3.34897889e+00  3.36123771e+00  3.37059094e+00  3.37306579e+00
  3.37900558e+00  3.38228632e+00  3.38715303e+00  3.39082258e+00
  3.39458807e+00  3.39986934e+00  3.40584130e+00  3.41072347e+00
  3.41391297e+00  3.41790139e+00  3.42051813e+00  3.42468170e+00
  3.43729840e+00  3.44615257e+00  3.45270929e+00  3.45671289e+00
  3.45941216e+00  3.46498139e+00  3.46981521e+00  3.47244138e+00
  3.48107982e+00  3.48429527e+00  3.48745687e+00  3.49270298e+00
  3.49653987e+00  3.49974933e+00  3.50273078e+00  3.50734608e+00
  3.51184796e+00  3.51395186e+00  3.52185444e+00  3.52333876e+00
  3.52956477e+00  3.53493644e+00  3.53790235e+00  3.54307298e+00
  3.55175129e+00  3.55767563e+00  3.56219385e+00  3.56899890e+00
  3.57336788e+00  3.57844250e+00  3.58718981e+00  3.59142465e+00
  3.59848594e+00  3.60853568e+00  3.61083857e+00  3.61613703e+00
  3.61843344e+00  3.62447400e+00  3.62874190e+00  3.63161446e+00
  3.63616246e+00  3.64093707e+00  3.64725703e+00  3.65193738e+00
  3.65703885e+00  3.66248014e+00  3.66282085e+00  3.67461465e+00
  3.67958725e+00  3.69156507e+00  3.69555587e+00  3.70700238e+00
  3.70836309e+00  3.70968928e+00  3.71544005e+00  3.72721293e+00
  3.73497365e+00  3.74305787e+00  3.75355982e+00  3.75893378e+00
  3.79684686e+00  3.79928232e+00  3.81275308e+00  3.82629906e+00
  3.83159502e+00  3.83750024e+00  3.84988401e+00  3.86134462e+00
  3.86474531e+00  3.87166588e+00  3.87781942e+00  3.88143329e+00
  3.88843627e+00  3.89831259e+00  3.90388026e+00  3.91846883e+00
  3.95782907e+00  3.96540960e+00  3.97479353e+00  3.99892027e+00
  4.00454984e+00  4.01307099e+00  4.02160890e+00  4.03781453e+00
  4.04066353e+00  4.04806541e+00  4.06017166e+00  4.06975633e+00
  4.07138521e+00  4.08769922e+00  4.10354740e+00  4.11163511e+00
  4.11719102e+00  4.13173725e+00  4.14697205e+00  4.15763458e+00
  4.16705901e+00  4.17203972e+00  4.18236679e+00  4.18327990e+00
  4.19715665e+00  4.19927671e+00  4.20980470e+00  4.22368194e+00
  4.22869944e+00  4.23243778e+00  4.24495490e+00  4.24575532e+00
  4.25011267e+00  4.25946651e+00  4.25956424e+00  4.27129190e+00
  4.27526027e+00  4.28492902e+00  4.29279149e+00  4.29507167e+00
  4.30413738e+00  4.30529427e+00  4.31271728e+00  4.32584924e+00
  4.32884890e+00  4.33430523e+00  4.34123482e+00  4.35180494e+00
  4.36013874e+00  4.36945559e+00  4.37999506e+00  4.38168390e+00
  4.39421934e+00  4.40203230e+00  4.41288535e+00  4.41943820e+00
  4.42347354e+00  4.45014292e+00  4.45785780e+00  4.47269089e+00
  4.49447473e+00  4.49858554e+00  4.52532894e+00  4.52769001e+00
  4.52874414e+00  4.54967513e+00  4.55228150e+00  4.55784545e+00
  4.57583890e+00  4.60041650e+00  4.60764605e+00  4.64100485e+00
  4.65459851e+00  4.67881761e+00  4.72141014e+00  4.72420455e+00
  4.73553632e+00  4.75797289e+00  4.76263901e+00  4.76684648e+00
  4.78381459e+00  4.80838007e+00  4.82357248e+00  4.83146910e+00
  4.84112024e+00  4.85459370e+00  4.86927648e+00  4.89582436e+00
  4.91585784e+00  4.92435062e+00  4.95959675e+00  4.96992565e+00
  5.00297060e+00  5.00995268e+00  5.01874597e+00  5.02182114e+00
  5.04056651e+00  5.05071731e+00  5.06205597e+00  5.09185194e+00
  5.10262809e+00  5.11764761e+00  5.12457867e+00  5.12834752e+00
  5.15343696e+00  5.16287462e+00  5.19743754e+00  5.23014674e+00
  5.24211722e+00  5.26126504e+00  5.28551943e+00  5.28856756e+00
  5.29747883e+00  5.30224602e+00  5.33298865e+00  5.33609765e+00
  5.35499585e+00  5.41542239e+00  5.41985604e+00  5.46787695e+00
  5.50875977e+00  5.51596919e+00  5.52316133e+00  5.54148103e+00
  5.56120425e+00  5.57602658e+00  5.59404258e+00  5.61486836e+00
  5.64200503e+00  5.69369679e+00  5.72682217e+00  5.75761623e+00
  5.80712197e+00  5.85055613e+00  5.86130163e+00  5.88198049e+00
  5.90271689e+00  5.90636691e+00  5.98354840e+00  6.00867235e+00
  6.05738854e+00  6.17137413e+00  6.25544595e+00  6.51412261e+00
  6.78947845e+00  6.81071579e+00  6.93534243e+00  7.09723229e+00
  7.55870641e+00  7.56510358e+00  2.21592528e+01  2.23582888e+01
  2.24044143e+01  2.24524457e+01  2.25007458e+01  2.26027252e+01
  2.26275958e+01  2.26316915e+01  2.26602422e+01  2.27266810e+01
  2.27516761e+01  2.27608760e+01  2.27850903e+01  2.28049055e+01
  2.28335270e+01  2.28987267e+01  2.29334688e+01  2.29913135e+01
  2.30713031e+01  2.31310571e+01  2.32439194e+01  2.33750572e+01
  2.34972420e+01  2.38046639e+01  3.29183893e+01  4.44594398e+01]
nelec by numeric integration = 179.99973903788765
    CPU time for vxc    110.55 sec, wall time      6.04 sec
    CPU time for df vj and vk    344.08 sec, wall time     21.74 sec
    CPU time for df vj and vk    272.81 sec, wall time     14.03 sec
E1 = -5501.597004939504  Ecoul = 2548.7340403057156  Exc = -153.3356246901884
Extra cycle  E= -1057.22802142354  delta_E= -3.64e-12  |g|= 3.61e-06  |ddm|= 7.73e-06
    CPU time for scf_cycle   2783.70 sec, wall time    184.50 sec
    CPU time for SCF   2783.70 sec, wall time    184.50 sec
converged SCF energy = -1057.22802142354
SCF Done after 184.52 seconds
after SCF memory used: 14.76 GB
Converting <class 'pyscf.df.df_jk.density_fit.<locals>.DFHF'> to RHF
Converting <class 'pyscf.df.df_jk.density_fit.<locals>.DFHF'> to RHF
hdiag shape (75780,)
n_occ =  90
n_vir =  842
max_vir =  241
A_size =  75780
A_reduced_size = 21690
a_x = 0.56
beta = 8.0
alpha = 4.58
Q-Gamma tensors building time = 0.67
after Q matrix memory used: 14.95 GB
stapol
|-------- In-house Developed stapol Starts ---------|
Residual conv = 1e-05


initial guess sTDDFT
preconditioner sTDDFT
Static polarizability procedure aborted
sTDDFT Stapol precond Converged
after 5 steps 0.3503 s
conv threhsold = 1.00e-02
final subspace: 13
max_norm =  7.91e-03
initial_cost 0.0037s  1.06%
MVcost     0.2833s  80.87%
GScost     0.0263s  7.51%
subgencost 0.0195s  5.56%
subcost    0.0007s  0.19%
alpha tensor of initial guess:
[[522.46703688   8.55652049  -1.83408177]
 [  8.55652049 453.13437072  -1.99270348]
 [ -1.83408177  -1.99270348 271.15827796]]
new_m = 3

Iteration 0
    CPU time for df vj and vk   1028.02 sec, wall time     60.92 sec
    CPU time for df vj and vk    810.03 sec, wall time     41.83 sec
max_norm = 5.73e-01
Static polarizability procedure aborted
sTDDFT Stapol precond Converged
after 5 steps 0.4027 s
conv threhsold = 1.00e-02
final subspace: 14
max_norm =  4.92e-03
initial_cost 0.0059s  1.47%
MVcost     0.3138s  77.93%
GScost     0.0310s  7.70%
subgencost 0.0201s  5.00%
subcost    0.0005s  0.13%

Iteration 1
    CPU time for df vj and vk   1029.00 sec, wall time     61.10 sec
    CPU time for df vj and vk    808.50 sec, wall time     41.76 sec
max_norm = 2.15e-01
Static polarizability procedure aborted
sTDDFT Stapol precond Converged
after 5 steps 0.3499 s
conv threhsold = 1.00e-02
final subspace: 14
max_norm =  4.48e-03
initial_cost 0.0037s  1.07%
MVcost     0.2785s  79.60%
GScost     0.0297s  8.50%
subgencost 0.0173s  4.93%
subcost    0.0004s  0.12%

Iteration 2
    CPU time for df vj and vk   1029.17 sec, wall time     60.99 sec
    CPU time for df vj and vk    806.16 sec, wall time     41.39 sec
max_norm = 7.88e-02
Static polarizability procedure aborted
sTDDFT Stapol precond Converged
after 5 steps 0.3862 s
conv threhsold = 1.00e-02
final subspace: 15
max_norm =  5.64e-03
initial_cost 0.0055s  1.42%
MVcost     0.2991s  77.44%
GScost     0.0325s  8.42%
subgencost 0.0186s  4.81%
subcost    0.0005s  0.12%

Iteration 3
    CPU time for df vj and vk   1038.52 sec, wall time     61.58 sec
    CPU time for df vj and vk    805.11 sec, wall time     41.47 sec
max_norm = 2.84e-02
Static polarizability procedure aborted
sTDDFT Stapol precond Converged
after 5 steps 0.3605 s
conv threhsold = 1.00e-02
final subspace: 15
max_norm =  5.26e-03
initial_cost 0.0033s  0.90%
MVcost     0.2892s  80.20%
GScost     0.0329s  9.12%
subgencost 0.0173s  4.78%
subcost    0.0004s  0.12%

Iteration 4
    CPU time for df vj and vk   1025.47 sec, wall time     60.73 sec
    CPU time for df vj and vk    809.39 sec, wall time     41.88 sec
max_norm = 8.93e-03
Static polarizability procedure aborted
sTDDFT Stapol precond Converged
after 5 steps 0.3717 s
conv threhsold = 1.00e-02
final subspace: 15
max_norm =  5.10e-03
initial_cost 0.0032s  0.85%
MVcost     0.3014s  81.09%
GScost     0.0313s  8.42%
subgencost 0.0172s  4.61%
subcost    0.0004s  0.11%

Iteration 5
    CPU time for df vj and vk   1031.55 sec, wall time     61.06 sec
    CPU time for df vj and vk    803.32 sec, wall time     41.15 sec
max_norm = 2.80e-03
Static polarizability procedure aborted
sTDDFT Stapol precond Converged
after 5 steps 0.3613 s
conv threhsold = 1.00e-02
final subspace: 15
max_norm =  4.04e-03
initial_cost 0.0033s  0.91%
MVcost     0.2902s  80.34%
GScost     0.0321s  8.87%
subgencost 0.0176s  4.87%
subcost    0.0004s  0.11%

Iteration 6
    CPU time for df vj and vk   1034.10 sec, wall time     61.49 sec
    CPU time for df vj and vk    809.34 sec, wall time     41.65 sec
max_norm = 8.29e-04
Static polarizability procedure aborted
sTDDFT Stapol precond Converged
after 5 steps 0.2910 s
conv threhsold = 1.00e-02
final subspace: 13
max_norm =  9.36e-03
initial_cost 0.0033s  1.12%
MVcost     0.2310s  79.39%
GScost     0.0237s  8.13%
subgencost 0.0166s  5.69%
subcost    0.0004s  0.14%

Iteration 7
    CPU time for df vj and vk   1037.63 sec, wall time     61.44 sec
    CPU time for df vj and vk    806.75 sec, wall time     41.43 sec
max_norm = 2.68e-04
Static polarizability procedure aborted
sTDDFT Stapol precond Converged
after 5 steps 0.3013 s
conv threhsold = 1.00e-02
final subspace: 13
max_norm =  7.12e-03
initial_cost 0.0033s  1.09%
MVcost     0.2410s  79.99%
GScost     0.0248s  8.22%
subgencost 0.0164s  5.45%
subcost    0.0004s  0.14%

Iteration 8
    CPU time for df vj and vk   1043.16 sec, wall time     62.36 sec
    CPU time for df vj and vk    811.38 sec, wall time     41.70 sec
max_norm = 9.24e-05
Static polarizability procedure aborted
sTDDFT Stapol precond Converged
after 4 steps 0.2730 s
conv threhsold = 1.00e-02
final subspace: 12
max_norm =  9.10e-03
initial_cost 0.0032s  1.16%
MVcost     0.2223s  81.43%
GScost     0.0212s  7.76%
subgencost 0.0118s  4.32%
subcost    0.0003s  0.12%

Iteration 9
    CPU time for df vj and vk   1037.94 sec, wall time     61.31 sec
    CPU time for df vj and vk    806.72 sec, wall time     41.30 sec
max_norm = 2.69e-05
Static polarizability procedure aborted
sTDDFT Stapol precond Converged
after 4 steps 0.1868 s
conv threhsold = 1.00e-02
final subspace: 8
max_norm =  5.58e-03
initial_cost 0.0015s  0.79%
MVcost     0.1587s  84.94%
GScost     0.0097s  5.17%
subgencost 0.0074s  3.94%
subcost    0.0003s  0.16%

Iteration 10
    CPU time for df vj and vk    688.56 sec, wall time     41.48 sec
    CPU time for df vj and vk    538.09 sec, wall time     27.60 sec
max_norm = 8.88e-06
static polarizability precodure aborted

Static polarizability Converged
after 11 steps; 1300.5471 s
final subspace (32, 32)
max_norm =  8.88e-06
initial_cost 0.4024s  0.03%
MVcost     1295.4325s  99.61%
Pcost      3.3293s  0.26%
Static polarizability tensor alpha
[[500.80408118  -5.83618111  -6.41839627]
 [ -5.83618111 421.4030271   -8.02809642]
 [ -6.41839627  -8.02809642 152.56503559]]


initial guess Adiag
preconditioner Adiag
alpha tensor of initial guess:
[[437.66003049  -1.91812341  -9.05173473]
 [ -1.91812341 409.44502221  -9.86597697]
 [ -9.05173473  -9.86597697 195.31422775]]
new_m = 3

Iteration 0
    CPU time for df vj and vk   1029.94 sec, wall time     61.78 sec
    CPU time for df vj and vk    806.88 sec, wall time     43.00 sec
max_norm = 5.95e-01

Iteration 1
    CPU time for df vj and vk   1056.25 sec, wall time     64.66 sec
    CPU time for df vj and vk    813.67 sec, wall time     42.27 sec
max_norm = 2.38e-01

Iteration 2
    CPU time for df vj and vk   1036.45 sec, wall time     61.52 sec
    CPU time for df vj and vk    805.75 sec, wall time     41.46 sec
max_norm = 1.09e-01

Iteration 3
    CPU time for df vj and vk   1027.10 sec, wall time     61.51 sec
    CPU time for df vj and vk    808.01 sec, wall time     41.81 sec
max_norm = 5.36e-02

Iteration 4
    CPU time for df vj and vk   1030.85 sec, wall time     62.35 sec
    CPU time for df vj and vk    806.21 sec, wall time     41.60 sec
max_norm = 2.12e-02

Iteration 5
    CPU time for df vj and vk   1030.40 sec, wall time     60.89 sec
    CPU time for df vj and vk    806.23 sec, wall time     41.55 sec
max_norm = 8.35e-03

Iteration 6
    CPU time for df vj and vk   1034.21 sec, wall time     61.60 sec
    CPU time for df vj and vk    804.46 sec, wall time     41.31 sec
max_norm = 3.15e-03

Iteration 7
    CPU time for df vj and vk   1034.41 sec, wall time     61.18 sec
    CPU time for df vj and vk    801.90 sec, wall time     41.15 sec
max_norm = 1.23e-03

Iteration 8
    CPU time for df vj and vk   1035.20 sec, wall time     61.31 sec
    CPU time for df vj and vk    806.70 sec, wall time     41.38 sec
max_norm = 4.67e-04

Iteration 9
    CPU time for df vj and vk   1032.55 sec, wall time     61.13 sec
    CPU time for df vj and vk    800.96 sec, wall time     41.17 sec
max_norm = 1.56e-04

Iteration 10
    CPU time for df vj and vk   1032.56 sec, wall time     61.46 sec
    CPU time for df vj and vk    809.23 sec, wall time     41.50 sec
max_norm = 5.63e-05

Iteration 11
    CPU time for df vj and vk   1033.68 sec, wall time     61.29 sec
    CPU time for df vj and vk    804.67 sec, wall time     41.51 sec
max_norm = 2.79e-05

Iteration 12
    CPU time for df vj and vk    689.17 sec, wall time     41.59 sec
    CPU time for df vj and vk    535.71 sec, wall time     27.60 sec
max_norm = 1.09e-05

Iteration 13
    CPU time for df vj and vk    342.12 sec, wall time     21.57 sec
    CPU time for df vj and vk    268.96 sec, wall time     13.78 sec
max_norm = 7.97e-06
static polarizability precodure aborted

Static polarizability Converged
after 14 steps; 1595.6709 s
final subspace (39, 39)
max_norm =  7.97e-06
initial_cost 0.0418s  0.00%
MVcost     1593.6333s  99.87%
Pcost      0.0240s  0.00%
Static polarizability tensor alpha
[[500.80408118  -5.83618111  -6.41839627]
 [ -5.83618111 421.40302711  -8.02809642]
 [ -6.41839627  -8.02809642 152.56503558]]
xyzfile = 47_Dihydroisobenzofuran_C5.xyz
checkfile = True
method = RKS
functional = wb97x
basis_set = def2-tzvp
density_fit = True
grid_level = 3
nstates = 4
pytd = False
TDA = False
TDDFT = False
dynpol = False
dynpol_omega = []
stapol = True
sTDA = False
sTDDFT = False
Truncate_test = False
truncate_virtual = 40.0
ip_options = [0, 1]
conv_tolerance = 1e-05
initial_TOL = 0.01
precond_TOL = 0.01
extrainitial = 8
max = 30
eigensolver_tol = 1e-05
memory = 60000
verbose = 5
beta = []
alpha = []
|-------- In-house Developed stapol Ends ----------|
