curpath /scratch/pbsjobs/job.16219618.hpc
lib.num_threads() =  20
at beginning memory used: 0.05 GB
mol.max_memory 60000


System: uname_result(system='Linux', node='compt253', release='3.10.0-1127.el7.x86_64', version='#1 SMP Tue Feb 18 16:39:12 EST 2020', machine='x86_64', processor='x86_64')  Threads 20
Python 3.7.0 (default, Aug 23 2018, 14:24:33) 
[GCC 6.3.0]
numpy 1.18.1  scipy 1.4.1
Date: Mon Aug 30 23:33:46 2021
PySCF version 1.7.4
PySCF path  /home/zzz6/.local/lib/python3.7/site-packages/pyscf

[CONFIG] conf_file None
[INPUT] verbose = 5
[INPUT] max_memory = 60000 
[INPUT] num. atoms = 26
[INPUT] num. electrons = 144
[INPUT] charge = 0
[INPUT] spin (= nelec alpha-beta = 2S) = 0
[INPUT] symmetry False subgroup None
[INPUT] Mole.unit = angstrom
[INPUT]  1 O      4.247987306424  -1.846927181248  -1.316359592485 AA    8.027532589770  -3.490186544573  -2.487559111241 Bohr
[INPUT]  2 C      4.495218970863  -1.223252391978  -0.311178858723 AA    8.494732724881  -2.311612002057  -0.588042818741 Bohr
[INPUT]  3 O      5.746433820852  -1.106328913787   0.214862977101 AA   10.859186114349  -2.090658650745   0.406032181031 Bohr
[INPUT]  4 C      3.509216367140  -0.399704138959   0.514502740416 AA    6.631457845735  -0.755331353487   0.972269269724 Bohr
[INPUT]  5 C      3.655927121840   1.110982794313   0.152825984330 AA    6.908700991647   2.099453210356   0.288799255100 Bohr
[INPUT]  6 S      2.001806354916   1.822091089423   0.511223281500 AA    3.782865765205   3.443253133019   0.966071990537 Bohr
[INPUT]  7 C      1.321109313061   0.151573057195   0.334054203298 AA    2.496534782298   0.286431565961   0.631270954993 Bohr
[INPUT]  8 C     -0.137401260025   0.027449752267   0.256414050786 AA   -0.259650750618   0.051872513972   0.484552330475 Bohr
[INPUT]  9 N     -0.822841579411  -1.054074765570   0.499365986980 AA   -1.554945228991  -1.991912621742   0.943664951315 Bohr
[INPUT] 10 C     -2.171244089715  -0.833372234478   0.337530478236 AA   -4.103056679141  -1.574845282981   0.637840162559 Bohr
[INPUT] 11 C     -3.188944901761  -1.793493075299   0.521545499596 AA   -6.026232490656  -3.389210718619   0.985578155736 Bohr
[INPUT] 12 C     -4.516200867549  -1.426439718153   0.322930151993 AA   -8.534382763191  -2.695580400510   0.610249544631 Bohr
[INPUT] 13 C     -4.858863744859  -0.102915970426  -0.060177282211 AA   -9.181921754362  -0.194482997950  -0.113718582300 Bohr
[INPUT] 14 O     -6.153679479532   0.273822247160  -0.257752929220 AA  -11.628768874672   0.517449053946  -0.487082444030 Bohr
[INPUT] 15 C     -3.869689467178   0.874241015057  -0.250073650787 AA   -7.312653280081   1.652076085319  -0.472570710957 Bohr
[INPUT] 16 C     -2.536762001764   0.497763179425  -0.047705033480 AA   -4.793785426538   0.940636084006  -0.090149448041 Bohr
[INPUT] 17 S     -1.095127702652   1.467663949435  -0.213573628797 AA   -2.069491429437   2.773482907330  -0.403595665857 Bohr
[INPUT] 18 N      2.138501848622  -0.834023223936   0.308052414711 AA    4.041182810773  -1.576075474766   0.582134695814 Bohr
[INPUT] 19 H      6.339712538605  -1.605293514780  -0.385969605625 AA   11.980320406435  -3.033565092474  -0.729376847037 Bohr
[INPUT] 20 H      3.757722065708  -0.543934654700   1.585092122068 AA    7.101065556423  -1.027887527042   2.995389992914 Bohr
[INPUT] 21 H      4.422945878214   1.614197742394   0.758799935358 AA    8.358156373598   3.050391644015   1.433924061165 Bohr
[INPUT] 22 H      3.878922986814   1.250550187094  -0.918987595985 AA    7.330102103358   2.363197358632  -1.736634868284 Bohr
[INPUT] 23 H     -2.917292680084  -2.810780199221   0.815517430166 AA   -5.512884190557  -5.311604772877   1.541104592822 Bohr
[INPUT] 24 H     -5.315959020949  -2.163979331863   0.461630263512 AA  -10.045706639004  -4.089328276441   0.872354768848 Bohr
[INPUT] 25 H     -6.732585429241  -0.492208902542  -0.094463800341 AA  -12.722742571503  -0.930140021878  -0.178510711330 Bohr
[INPUT] 26 H     -4.159702348339   1.885513203176  -0.544685542396 AA   -7.860698198070   3.563103558255  -1.029306499139 Bohr
[INPUT] ---------------- BASIS SET ---------------- 
[INPUT] l, kappa, [nprim/nctr], expnt,             c_1 c_2 ...
[INPUT] O
[INPUT] 0    0    [6    /1   ]  27032.382631      0.00021726302465
                                4052.3871392      0.0016838662199
                                922.3272271       0.0087395616265
                                261.24070989      0.035239968808
                                85.354641351      0.11153519115
                                31.035035245      0.25588953961
[INPUT] 0    0    [2    /1   ]  12.260860728      0.39768730901
                                4.9987076005      0.2462784943
[INPUT] 0    0    [1    /1   ]  1.1703108158         1
[INPUT] 0    0    [1    /1   ]  0.46474740994        1
[INPUT] 0    0    [1    /1   ]  0.18504536357        1
[INPUT] 1    0    [4    /1   ]  63.274954801      0.0060685103418
                                14.627049379      0.041912575824
                                4.4501223456      0.16153841088
                                1.5275799647      0.35706951311
[INPUT] 1    0    [1    /1   ]  0.52935117943        1
[INPUT] 1    0    [1    /1   ]  0.1747842127         1
[INPUT] 2    0    [1    /1   ]  2.314                1
[INPUT] 2    0    [1    /1   ]  0.645                1
[INPUT] 3    0    [1    /1   ]  1.428                1
[INPUT] C
[INPUT] 0    0    [6    /1   ]  13575.349682      0.00022245814352
                                2035.233368       0.0017232738252
                                463.22562359      0.0089255715314
                                131.20019598      0.035727984502
                                42.853015891      0.11076259931
                                15.584185766      0.24295627626
[INPUT] 0    0    [2    /1   ]  6.2067138508      0.41440263448
                                2.5764896527      0.23744968655
[INPUT] 0    0    [1    /1   ]  0.57696339419        1
[INPUT] 0    0    [1    /1   ]  0.22972831358        1
[INPUT] 0    0    [1    /1   ]  0.095164440028       1
[INPUT] 1    0    [4    /1   ]  34.697232244      0.0053333657805
                                7.9582622826      0.035864109092
                                2.3780826883      0.14215873329
                                0.81433208183     0.34270471845
[INPUT] 1    0    [1    /1   ]  0.28887547253        1
[INPUT] 1    0    [1    /1   ]  0.10056823671        1
[INPUT] 2    0    [1    /1   ]  1.097                1
[INPUT] 2    0    [1    /1   ]  0.318                1
[INPUT] 3    0    [1    /1   ]  0.761                1
[INPUT] N
[INPUT] 0    0    [6    /1   ]  19730.800647      0.00021887984991
                                2957.8958745      0.0016960708803
                                673.22133595      0.0087954603538
                                190.68249494      0.035359382605
                                62.295441898      0.11095789217
                                22.654161182      0.24982972552
[INPUT] 0    0    [2    /1   ]  8.9791477428      0.40623896148
                                3.686300237       0.24338217176
[INPUT] 0    0    [1    /1   ]  0.84660076805        1
[INPUT] 0    0    [1    /1   ]  0.33647133771        1
[INPUT] 0    0    [1    /1   ]  0.13647653675        1
[INPUT] 1    0    [4    /1   ]  49.20038051       0.0055552416751
                                11.346790537      0.038052379723
                                3.4273972411      0.14953671029
                                1.1785525134      0.3494930523
[INPUT] 1    0    [1    /1   ]  0.41642204972        1
[INPUT] 1    0    [1    /1   ]  0.14260826011        1
[INPUT] 2    0    [1    /1   ]  1.654                1
[INPUT] 2    0    [1    /1   ]  0.469                1
[INPUT] 3    0    [1    /1   ]  1.093                1
[INPUT] S
[INPUT] 0    0    [7    /1   ]  60700.928104      0.00054695944225
                                9102.6106854      0.0042297224557
                                2071.4166009      0.021747824159
                                586.02476821      0.085100053589
                                190.55395021      0.24799128459
                                67.63038426       0.46703640406
                                25.127306905      0.3643458755
[INPUT] 0    0    [3    /1   ]  112.5746301       0.02167004024
                                34.795554217      0.09360230176
                                6.5115556215      -0.26068001422
[INPUT] 0    0    [2    /1   ]  3.2399032261      1.2842089435
                                1.5477160881      0.66036416584
[INPUT] 0    0    [1    /1   ]  0.40541030112        1
[INPUT] 0    0    [1    /1   ]  0.14550651059        1
[INPUT] 1    0    [5    /1   ]  564.36716027      0.0024796796317
                                133.42624379      0.01967793025
                                42.468271189      0.089980008258
                                15.61652758       0.25705880575
                                6.1093988469      0.43515167292
[INPUT] 1    0    [1    /1   ]  2.4404160198         1
[INPUT] 1    0    [1    /1   ]  0.83882201296        1
[INPUT] 1    0    [1    /1   ]  0.312887469          1
[INPUT] 1    0    [1    /1   ]  0.10770109004        1
[INPUT] 2    0    [2    /1   ]  3.756              0.2
                                0.812                1
[INPUT] 2    0    [1    /1   ]  0.273                1
[INPUT] 3    0    [1    /1   ]  0.557                1
[INPUT] H
[INPUT] 0    0    [3    /1   ]  34.061341         0.0060251978
                                5.1235746         0.045021094
                                1.1646626         0.20189726
[INPUT] 0    0    [1    /1   ]  0.32723041           1
[INPUT] 0    0    [1    /1   ]  0.10307241           1
[INPUT] 1    0    [1    /1   ]  0.8                  1

nuclear repulsion = 1455.3643461788
number of shells = 234
number of NR pGTOs = 926
number of NR cGTOs = 618
basis = def2-tzvp
ecp = {}
CPU time:         2.26
RKS
Density fitting turned on
Molecule built
Calculating SCF Energy...


******** <class 'pyscf.df.df_jk.density_fit.<locals>.DFHF'> ********
method = DFHF-RKS-RHF
initial guess = chkfile
damping factor = 0
level_shift factor = 0
DIIS = <class 'pyscf.scf.diis.CDIIS'>
diis_start_cycle = 1
diis_space = 8
SCF conv_tol = 1e-10
SCF conv_tol_grad = None
SCF max_cycles = 50
direct_scf = True
direct_scf_tol = 1e-13
chkfile to save SCF result = 26_Firefly_luciferin_wb97x.chk
max_memory 60000 MB (current use 55 MB)
XC functionals = wb97x
small_rho_cutoff = 1e-07
radial grids: 
    Treutler-Ahlrichs [JCP 102, 346 (1995); DOI:10.1063/1.469408] (M4) radial grids
    
becke partition: Becke, JCP 88, 2547 (1988); DOI:10.1063/1.454033
pruning grids: <function nwchem_prune at 0x7f650b298e18>
grids dens level: 3
symmetrized grids: False
atomic radii adjust function: <function treutler_atomic_radii_adjust at 0x7f650b298d90>
Set gradient conv threshold to 1e-05
atom O rad-grids = 75, ang-grids = [ 50  50  50  50  50  50  50  50  50  50  50  50  50  50  50  50  50  50
  50  50  50  50  86  86  86  86  86  86  86  86  86 266 266 266 266 266
 266 266 302 302 302 302 302 302 302 302 302 302 302 302 302 302 302 302
 302 302 302 266 266 266 266 266 266 266 266 266 266 266 266 266 266 266
 266 266 266]
atom C rad-grids = 75, ang-grids = [ 50  50  50  50  50  50  50  50  50  50  50  50  50  50  50  50  50  50
  50  50  50  50  50  86  86  86  86  86  86  86  86  86  86 266 266 266
 266 266 266 266 302 302 302 302 302 302 302 302 302 302 302 302 302 302
 302 302 302 302 302 302 266 266 266 266 266 266 266 266 266 266 266 266
 266 266 266]
atom S rad-grids = 80, ang-grids = [ 50  50  50  50  50  50  50  50  50  50  50  50  50  50  50  50  50  50
  50  50  50  50  50  50  86  86  86  86  86  86  86  86  86  86  86  86
  86 350 350 350 350 350 350 350 350 350 434 434 434 434 434 434 434 434
 434 434 434 434 434 434 434 434 434 434 350 350 350 350 350 350 350 350
 350 350 350 350 350 350 350 350]
atom N rad-grids = 75, ang-grids = [ 50  50  50  50  50  50  50  50  50  50  50  50  50  50  50  50  50  50
  50  50  50  50  50  86  86  86  86  86  86  86  86  86 266 266 266 266
 266 266 266 302 302 302 302 302 302 302 302 302 302 302 302 302 302 302
 302 302 302 302 266 266 266 266 266 266 266 266 266 266 266 266 266 266
 266 266 266]
atom H rad-grids = 50, ang-grids = [ 50  50  50  50  50  50  50  50  50  50  50  50  50  50  86  86  86  86
 266 266 266 266 302 302 302 302 302 302 302 302 302 302 302 302 302 266
 266 266 266 266 266 266 266 266 266 266 266 266 266 266]
tot grids = 341752
Drop grids 53297
    CPU time for setting up grids     32.04 sec, wall time      1.81 sec
nelec by numeric integration = 143.99999159267412
    CPU time for vxc     55.45 sec, wall time      3.40 sec
******** <class 'pyscf.df.df.DF'> ********
auxbasis = None
max_memory = 60000
_cderi_to_save = /tmp/job.16219618.hpc/tmpmby56p4k
Default auxbasis def2-tzvp-jkfit is used for O def2-tzvp
Default auxbasis def2-tzvp-jkfit is used for C def2-tzvp
Default auxbasis def2-tzvp-jkfit is used for N def2-tzvp
Default auxbasis def2-tzvp-jkfit is used for S def2-tzvp
Default auxbasis def2-tzvp-jkfit is used for H def2-tzvp
num shells = 524, num cGTOs = 1610
size of aux basis 1610
int3c2e [1/1], AO [0:234], nrow = 191271
    CPU time for cholesky_eri     48.19 sec, wall time     10.65 sec
    CPU time for df vj and vk    128.99 sec, wall time     17.37 sec
Create RSH-DF object <pyscf.df.df.DF object at 0x7f6525da66a0> for omega=0.3
******** <class 'pyscf.df.df.DF'> ********
auxbasis = None
max_memory = 60000
_cderi_to_save = /tmp/job.16219618.hpc/tmpbm14o3_c
Default auxbasis def2-tzvp-jkfit is used for O def2-tzvp
Default auxbasis def2-tzvp-jkfit is used for C def2-tzvp
Default auxbasis def2-tzvp-jkfit is used for N def2-tzvp
Default auxbasis def2-tzvp-jkfit is used for S def2-tzvp
Default auxbasis def2-tzvp-jkfit is used for H def2-tzvp
num shells = 524, num cGTOs = 1610
size of aux basis 1240
int3c2e [1/1], AO [0:234], nrow = 191271
    CPU time for cholesky_eri     60.58 sec, wall time      4.80 sec
    CPU time for df vj and vk    121.28 sec, wall time      8.27 sec
E1 = -5026.71501317435  Ecoul = 2169.1880412080686  Exc = -153.50132761888307
init E= -1555.66395340636
cond(S) = 1060012.8292540987
    CPU time for initialize scf    342.09 sec, wall time     31.33 sec
  HOMO = -0.312727265551623  LUMO = -0.00775187492441543
  mo_energy =
[-8.88838022e+01 -8.88650514e+01 -1.92585478e+01 -1.92428054e+01
 -1.91974790e+01 -1.44151208e+01 -1.44101133e+01 -1.04065386e+01
 -1.03574803e+01 -1.03506109e+01 -1.03460560e+01 -1.03302434e+01
 -1.03192527e+01 -1.03175893e+01 -1.03051044e+01 -1.02862212e+01
 -1.02817396e+01 -1.02798142e+01 -8.07084018e+00 -8.05261809e+00
 -6.03235081e+00 -6.02852298e+00 -6.02483916e+00 -6.01490872e+00
 -6.01099406e+00 -6.00494254e+00 -1.24677742e+00 -1.20586530e+00
 -1.15555106e+00 -1.11536318e+00 -1.09055076e+00 -9.92014222e-01
 -9.46452541e-01 -9.34586432e-01 -9.17339826e-01 -8.79831144e-01
 -8.67543182e-01 -7.98262952e-01 -7.69701679e-01 -7.51018815e-01
 -7.32659952e-01 -7.17490623e-01 -6.66136951e-01 -6.53917101e-01
 -6.45619811e-01 -6.23062564e-01 -6.12088594e-01 -6.11037109e-01
 -5.89767671e-01 -5.66627649e-01 -5.66341502e-01 -5.63622971e-01
 -5.58304091e-01 -5.39573860e-01 -5.37676032e-01 -5.26722901e-01
 -5.18550684e-01 -5.14579738e-01 -5.04138223e-01 -4.93967465e-01
 -4.71844915e-01 -4.66902115e-01 -4.46924366e-01 -4.42973976e-01
 -4.25604555e-01 -4.17924349e-01 -3.95396683e-01 -3.91664645e-01
 -3.86489825e-01 -3.46865576e-01 -3.39266472e-01 -3.12727266e-01
 -7.75187492e-03  4.42627088e-02  5.19645885e-02  8.04400953e-02
  8.41446209e-02  1.05105813e-01  1.07423835e-01  1.17325317e-01
  1.27438135e-01  1.32767176e-01  1.44940521e-01  1.51090595e-01
  1.52240584e-01  1.65714144e-01  1.71967182e-01  1.76210592e-01
  1.88740075e-01  1.98750175e-01  2.09589520e-01  2.19246951e-01
  2.30965715e-01  2.36008688e-01  2.40235035e-01  2.44465056e-01
  2.52681731e-01  2.63831572e-01  2.73751476e-01  2.78176317e-01
  2.80004629e-01  2.91062247e-01  2.95918555e-01  3.04476913e-01
  3.07359242e-01  3.10956093e-01  3.16925579e-01  3.21362642e-01
  3.32414375e-01  3.36175674e-01  3.45962633e-01  3.50436748e-01
  3.58217998e-01  3.65967498e-01  3.70769767e-01  3.77969732e-01
  3.85353264e-01  3.94245821e-01  3.99186558e-01  4.02699372e-01
  4.07107004e-01  4.13160675e-01  4.15072711e-01  4.19427186e-01
  4.25930290e-01  4.34557763e-01  4.38936488e-01  4.45126474e-01
  4.49634955e-01  4.52474860e-01  4.61211799e-01  4.67133692e-01
  4.71071095e-01  4.73446980e-01  4.77818101e-01  4.84973968e-01
  4.91384055e-01  4.95636018e-01  4.97475919e-01  5.10834948e-01
  5.13119942e-01  5.15725592e-01  5.18908661e-01  5.25229983e-01
  5.28096477e-01  5.35572734e-01  5.41110595e-01  5.56674668e-01
  5.59213478e-01  5.65279569e-01  5.69642652e-01  5.72850197e-01
  5.89103198e-01  5.95074198e-01  6.00605923e-01  6.09809716e-01
  6.12477118e-01  6.14463580e-01  6.20165836e-01  6.27147573e-01
  6.28851243e-01  6.38671173e-01  6.44378120e-01  6.59297325e-01
  6.72012939e-01  6.81481769e-01  6.88662988e-01  6.95092602e-01
  6.96867897e-01  7.02024383e-01  7.17924840e-01  7.21499376e-01
  7.28252516e-01  7.38780583e-01  7.48032817e-01  7.51033611e-01
  7.57089584e-01  7.59393088e-01  7.66405619e-01  7.73393357e-01
  7.78007322e-01  7.85014789e-01  7.94246635e-01  8.12105486e-01
  8.18274180e-01  8.34240304e-01  8.46309053e-01  8.52827252e-01
  8.57291433e-01  8.63057194e-01  8.67061446e-01  8.77000877e-01
  8.78639731e-01  8.81860837e-01  8.92072862e-01  9.14789476e-01
  9.19010398e-01  9.25833847e-01  9.33700050e-01  9.46522219e-01
  9.60798681e-01  9.67450104e-01  9.73842922e-01  9.86581979e-01
  9.95711648e-01  1.00308372e+00  1.00628206e+00  1.01663322e+00
  1.03350016e+00  1.04688844e+00  1.05508193e+00  1.06713733e+00
  1.07765867e+00  1.08584515e+00  1.10635872e+00  1.11642708e+00
  1.13050584e+00  1.13724989e+00  1.15551640e+00  1.17027158e+00
  1.17698845e+00  1.18659468e+00  1.18803602e+00  1.19323189e+00
  1.21603940e+00  1.22269982e+00  1.22897148e+00  1.24531628e+00
  1.26168139e+00  1.27532969e+00  1.28067756e+00  1.31123336e+00
  1.31716372e+00  1.32318365e+00  1.33096994e+00  1.33950258e+00
  1.35172532e+00  1.37242246e+00  1.38547684e+00  1.39447417e+00
  1.40055876e+00  1.41918375e+00  1.42403128e+00  1.43378587e+00
  1.45949829e+00  1.46193683e+00  1.48533437e+00  1.51066039e+00
  1.52257777e+00  1.52998571e+00  1.53988608e+00  1.54088853e+00
  1.55302738e+00  1.55955862e+00  1.56313057e+00  1.57288587e+00
  1.58063508e+00  1.58537134e+00  1.59649838e+00  1.59761934e+00
  1.60240160e+00  1.60785709e+00  1.61838031e+00  1.63366729e+00
  1.64118113e+00  1.64611041e+00  1.65296842e+00  1.66343274e+00
  1.67078411e+00  1.67723258e+00  1.68150640e+00  1.68768860e+00
  1.69941337e+00  1.70684722e+00  1.71221771e+00  1.71866892e+00
  1.72332480e+00  1.73428576e+00  1.74190992e+00  1.74387350e+00
  1.75101011e+00  1.75813368e+00  1.76606146e+00  1.78104480e+00
  1.79129167e+00  1.80247353e+00  1.81804198e+00  1.82483792e+00
  1.83360670e+00  1.83663548e+00  1.85616986e+00  1.86471794e+00
  1.86859141e+00  1.87612019e+00  1.90199992e+00  1.90794864e+00
  1.91436777e+00  1.92235558e+00  1.92885766e+00  1.93980538e+00
  1.94375437e+00  1.95665147e+00  1.95989441e+00  1.96590306e+00
  1.97363501e+00  1.98491329e+00  1.99393912e+00  2.00740317e+00
  2.01205474e+00  2.02823048e+00  2.03708424e+00  2.04502441e+00
  2.04952547e+00  2.05354531e+00  2.07112511e+00  2.07422469e+00
  2.07700703e+00  2.08995649e+00  2.10381629e+00  2.11835421e+00
  2.12742411e+00  2.13552568e+00  2.14142245e+00  2.15440364e+00
  2.16982058e+00  2.17409114e+00  2.18401155e+00  2.19037224e+00
  2.19994769e+00  2.22619191e+00  2.23521290e+00  2.24241486e+00
  2.26274648e+00  2.26766718e+00  2.26911944e+00  2.28114510e+00
  2.29864713e+00  2.30187975e+00  2.32328659e+00  2.33528158e+00
  2.33963066e+00  2.36028180e+00  2.36667300e+00  2.37139712e+00
  2.39451449e+00  2.41208847e+00  2.41680697e+00  2.42049599e+00
  2.44417342e+00  2.47081921e+00  2.48367901e+00  2.48576427e+00
  2.50926424e+00  2.52992727e+00  2.54283352e+00  2.54578941e+00
  2.56887262e+00  2.57235248e+00  2.59207866e+00  2.60620777e+00
  2.62897253e+00  2.64317731e+00  2.64881885e+00  2.66282414e+00
  2.67561943e+00  2.68696900e+00  2.69326718e+00  2.71423295e+00
  2.71755922e+00  2.73284920e+00  2.74353754e+00  2.75283489e+00
  2.76893497e+00  2.77260013e+00  2.78126246e+00  2.80315059e+00
  2.81400770e+00  2.81835454e+00  2.83108638e+00  2.83691896e+00
  2.84230703e+00  2.86399571e+00  2.86758098e+00  2.87509538e+00
  2.88374400e+00  2.90053309e+00  2.90995015e+00  2.91763591e+00
  2.93513578e+00  2.94323743e+00  2.94726324e+00  2.96578510e+00
  2.97812798e+00  2.98779629e+00  3.00053027e+00  3.00639258e+00
  3.02650628e+00  3.02995688e+00  3.03375195e+00  3.04063180e+00
  3.05009352e+00  3.06042153e+00  3.08138335e+00  3.08698804e+00
  3.09529811e+00  3.09854662e+00  3.11845383e+00  3.13902785e+00
  3.15025576e+00  3.15871582e+00  3.18094092e+00  3.18747058e+00
  3.19430373e+00  3.19901443e+00  3.20265643e+00  3.21459084e+00
  3.22616894e+00  3.23732213e+00  3.24036845e+00  3.25573834e+00
  3.26472433e+00  3.27518689e+00  3.28113943e+00  3.28453899e+00
  3.29304711e+00  3.29992691e+00  3.30896751e+00  3.32153451e+00
  3.32595202e+00  3.33470275e+00  3.35046696e+00  3.35866754e+00
  3.37025356e+00  3.37375811e+00  3.38248180e+00  3.39267344e+00
  3.40242602e+00  3.41363200e+00  3.41953368e+00  3.42187823e+00
  3.43391355e+00  3.43706136e+00  3.44583893e+00  3.46422517e+00
  3.47723941e+00  3.48138992e+00  3.49436762e+00  3.50387703e+00
  3.51373691e+00  3.52088333e+00  3.53216248e+00  3.53355468e+00
  3.53994119e+00  3.54993339e+00  3.55782825e+00  3.56391914e+00
  3.56912697e+00  3.58365218e+00  3.59093787e+00  3.59239349e+00
  3.61865739e+00  3.62364713e+00  3.65129160e+00  3.67157738e+00
  3.68194656e+00  3.70871040e+00  3.73128304e+00  3.74405227e+00
  3.74667934e+00  3.76809009e+00  3.77257115e+00  3.77952396e+00
  3.78897480e+00  3.79725411e+00  3.81145145e+00  3.82514088e+00
  3.84102569e+00  3.86421590e+00  3.88946606e+00  3.90308029e+00
  3.92424764e+00  3.94153043e+00  3.95650333e+00  3.96642981e+00
  3.99563677e+00  4.00545470e+00  4.01398767e+00  4.03107111e+00
  4.04041646e+00  4.04570083e+00  4.05793234e+00  4.06318290e+00
  4.08880553e+00  4.09395565e+00  4.11929477e+00  4.13481452e+00
  4.13867544e+00  4.16513361e+00  4.19021481e+00  4.20562472e+00
  4.21887451e+00  4.23642632e+00  4.25142609e+00  4.26470268e+00
  4.28072891e+00  4.30921188e+00  4.31410815e+00  4.33903234e+00
  4.36748898e+00  4.39326612e+00  4.43809270e+00  4.45528281e+00
  4.47556489e+00  4.50535527e+00  4.52679017e+00  4.53069964e+00
  4.57825892e+00  4.64009960e+00  4.65148273e+00  4.67546900e+00
  4.72874440e+00  4.74429219e+00  4.84031370e+00  4.84363570e+00
  4.85066434e+00  4.86349557e+00  4.87463112e+00  4.91630024e+00
  4.95947318e+00  4.97078737e+00  4.97584438e+00  4.98102098e+00
  4.98826006e+00  5.03669040e+00  5.04429908e+00  5.06598332e+00
  5.10875956e+00  5.18599737e+00  5.20284278e+00  5.22861748e+00
  5.24120504e+00  5.24839540e+00  5.28439130e+00  5.29775182e+00
  5.32017779e+00  5.34604056e+00  5.35495174e+00  5.36180149e+00
  5.39670942e+00  5.41810349e+00  5.44503241e+00  5.46365718e+00
  5.48978954e+00  5.49511226e+00  5.53205164e+00  5.55755783e+00
  5.56347661e+00  5.57754941e+00  5.61634034e+00  5.66290622e+00
  5.67543476e+00  5.71417826e+00  5.76247491e+00  5.80861220e+00
  5.85451199e+00  5.86779664e+00  5.87990823e+00  5.90621656e+00
  5.96800465e+00  5.98915503e+00  6.03032031e+00  6.06143577e+00
  6.15978407e+00  6.27446284e+00  6.29981244e+00  6.37875603e+00
  6.40889044e+00  6.46329524e+00  6.47314459e+00  6.50048450e+00
  6.54767413e+00  6.56906135e+00  6.74708102e+00  6.78467962e+00
  6.79457758e+00  6.84914072e+00  6.88338861e+00  6.91912446e+00
  6.98428611e+00  7.07399555e+00  7.18748942e+00  7.19252867e+00
  7.35136711e+00  7.40896968e+00  8.97705092e+00  9.01002766e+00
  9.44268964e+00  9.50121720e+00  9.54286563e+00  9.60990733e+00
  1.96787246e+01  2.03166720e+01  2.22836490e+01  2.23304008e+01
  2.25954363e+01  2.26850192e+01  2.27211752e+01  2.27681237e+01
  2.29172297e+01  2.30208050e+01  2.31069074e+01  2.32366514e+01
  2.34170740e+01  3.24796095e+01  3.25999578e+01  4.38049678e+01
  4.38818848e+01  4.39492731e+01]
nelec by numeric integration = 143.99999159265707
    CPU time for vxc     55.45 sec, wall time      3.30 sec
    CPU time for df vj and vk     76.53 sec, wall time      5.92 sec
    CPU time for df vj and vk     60.53 sec, wall time      3.15 sec
E1 = -5026.715017951466  Ecoul = 2169.188045409082  Exc = -153.50132704277522
cycle= 1 E= -1555.66395340636  delta_E= 5.91e-12  |g|= 3.57e-06  |ddm|= 5.33e-06
    CPU time for cycle= 1    196.11 sec, wall time     12.82 sec
  HOMO = -0.312727273565801  LUMO = -0.00775187143872235
  mo_energy =
[-8.88838020e+01 -8.88650508e+01 -1.92585455e+01 -1.92428061e+01
 -1.91974815e+01 -1.44151211e+01 -1.44101150e+01 -1.04065383e+01
 -1.03574797e+01 -1.03506103e+01 -1.03460566e+01 -1.03302435e+01
 -1.03192528e+01 -1.03175890e+01 -1.03051040e+01 -1.02862210e+01
 -1.02817394e+01 -1.02798140e+01 -8.07083997e+00 -8.05261765e+00
 -6.03235061e+00 -6.02852278e+00 -6.02483896e+00 -6.01490826e+00
 -6.01099361e+00 -6.00494209e+00 -1.24677708e+00 -1.20586567e+00
 -1.15555137e+00 -1.11536315e+00 -1.09055100e+00 -9.92014142e-01
 -9.46452353e-01 -9.34586451e-01 -9.17339719e-01 -8.79831108e-01
 -8.67543044e-01 -7.98262714e-01 -7.69701584e-01 -7.51018799e-01
 -7.32659883e-01 -7.17490358e-01 -6.66136939e-01 -6.53917123e-01
 -6.45619936e-01 -6.23062547e-01 -6.12088589e-01 -6.11037131e-01
 -5.89767872e-01 -5.66627525e-01 -5.66341520e-01 -5.63622886e-01
 -5.58304063e-01 -5.39573812e-01 -5.37676116e-01 -5.26722869e-01
 -5.18550700e-01 -5.14579715e-01 -5.04138133e-01 -4.93967554e-01
 -4.71844911e-01 -4.66902000e-01 -4.46924247e-01 -4.42974093e-01
 -4.25604600e-01 -4.17924250e-01 -3.95397186e-01 -3.91664755e-01
 -3.86490294e-01 -3.46865513e-01 -3.39266344e-01 -3.12727274e-01
 -7.75187144e-03  4.42628237e-02  5.19646990e-02  8.04400653e-02
  8.41446260e-02  1.05105768e-01  1.07423873e-01  1.17325444e-01
  1.27438222e-01  1.32767241e-01  1.44940658e-01  1.51090594e-01
  1.52240629e-01  1.65714224e-01  1.71967235e-01  1.76210634e-01
  1.88740172e-01  1.98750194e-01  2.09589557e-01  2.19247006e-01
  2.30965750e-01  2.36008736e-01  2.40235068e-01  2.44465072e-01
  2.52681766e-01  2.63831618e-01  2.73751503e-01  2.78176347e-01
  2.80004681e-01  2.91062303e-01  2.95918570e-01  3.04477002e-01
  3.07359338e-01  3.10956163e-01  3.16925600e-01  3.21362687e-01
  3.32414374e-01  3.36175715e-01  3.45962697e-01  3.50436815e-01
  3.58218038e-01  3.65967511e-01  3.70769786e-01  3.77969731e-01
  3.85353256e-01  3.94245811e-01  3.99186592e-01  4.02699405e-01
  4.07107029e-01  4.13160689e-01  4.15072753e-01  4.19427240e-01
  4.25930312e-01  4.34557832e-01  4.38936547e-01  4.45126551e-01
  4.49634984e-01  4.52474872e-01  4.61211831e-01  4.67133757e-01
  4.71071115e-01  4.73447055e-01  4.77818120e-01  4.84973982e-01
  4.91384110e-01  4.95636055e-01  4.97475973e-01  5.10834953e-01
  5.13119949e-01  5.15725616e-01  5.18908706e-01  5.25229998e-01
  5.28096489e-01  5.35572755e-01  5.41110666e-01  5.56674617e-01
  5.59213470e-01  5.65279620e-01  5.69642694e-01  5.72850232e-01
  5.89103214e-01  5.95074171e-01  6.00605937e-01  6.09809723e-01
  6.12477206e-01  6.14463618e-01  6.20165777e-01  6.27147553e-01
  6.28851323e-01  6.38671151e-01  6.44378059e-01  6.59297360e-01
  6.72012967e-01  6.81481796e-01  6.88663000e-01  6.95092617e-01
  6.96867884e-01  7.02024401e-01  7.17924910e-01  7.21499324e-01
  7.28252517e-01  7.38780560e-01  7.48032898e-01  7.51033561e-01
  7.57089622e-01  7.59393129e-01  7.66405709e-01  7.73393395e-01
  7.78007359e-01  7.85014831e-01  7.94246652e-01  8.12105512e-01
  8.18274185e-01  8.34240335e-01  8.46309096e-01  8.52827242e-01
  8.57291441e-01  8.63057238e-01  8.67061477e-01  8.77000930e-01
  8.78639768e-01  8.81860871e-01  8.92072920e-01  9.14789456e-01
  9.19010380e-01  9.25833794e-01  9.33700092e-01  9.46522257e-01
  9.60798733e-01  9.67450135e-01  9.73842946e-01  9.86582018e-01
  9.95711756e-01  1.00308376e+00  1.00628211e+00  1.01663328e+00
  1.03350013e+00  1.04688851e+00  1.05508196e+00  1.06713731e+00
  1.07765879e+00  1.08584520e+00  1.10635877e+00  1.11642712e+00
  1.13050588e+00  1.13724995e+00  1.15551647e+00  1.17027164e+00
  1.17698849e+00  1.18659472e+00  1.18803600e+00  1.19323192e+00
  1.21603938e+00  1.22269985e+00  1.22897149e+00  1.24531627e+00
  1.26168141e+00  1.27532974e+00  1.28067762e+00  1.31123340e+00
  1.31716377e+00  1.32318370e+00  1.33096996e+00  1.33950260e+00
  1.35172538e+00  1.37242255e+00  1.38547689e+00  1.39447423e+00
  1.40055881e+00  1.41918381e+00  1.42403135e+00  1.43378594e+00
  1.45949823e+00  1.46193685e+00  1.48533444e+00  1.51066052e+00
  1.52257778e+00  1.52998573e+00  1.53988609e+00  1.54088856e+00
  1.55302741e+00  1.55955866e+00  1.56313058e+00  1.57288584e+00
  1.58063502e+00  1.58537143e+00  1.59649839e+00  1.59761936e+00
  1.60240157e+00  1.60785705e+00  1.61838038e+00  1.63366738e+00
  1.64118117e+00  1.64611045e+00  1.65296848e+00  1.66343272e+00
  1.67078430e+00  1.67723268e+00  1.68150645e+00  1.68768866e+00
  1.69941349e+00  1.70684737e+00  1.71221776e+00  1.71866902e+00
  1.72332485e+00  1.73428569e+00  1.74191004e+00  1.74387348e+00
  1.75101018e+00  1.75813374e+00  1.76606154e+00  1.78104486e+00
  1.79129174e+00  1.80247360e+00  1.81804217e+00  1.82483791e+00
  1.83360671e+00  1.83663549e+00  1.85616988e+00  1.86471793e+00
  1.86859153e+00  1.87612030e+00  1.90200000e+00  1.90794877e+00
  1.91436779e+00  1.92235571e+00  1.92885772e+00  1.93980545e+00
  1.94375456e+00  1.95665159e+00  1.95989450e+00  1.96590319e+00
  1.97363512e+00  1.98491330e+00  1.99393926e+00  2.00740330e+00
  2.01205483e+00  2.02823049e+00  2.03708433e+00  2.04502442e+00
  2.04952544e+00  2.05354540e+00  2.07112513e+00  2.07422476e+00
  2.07700709e+00  2.08995659e+00  2.10381636e+00  2.11835421e+00
  2.12742415e+00  2.13552585e+00  2.14142240e+00  2.15440375e+00
  2.16982061e+00  2.17409121e+00  2.18401155e+00  2.19037225e+00
  2.19994769e+00  2.22619195e+00  2.23521292e+00  2.24241492e+00
  2.26274651e+00  2.26766724e+00  2.26911959e+00  2.28114516e+00
  2.29864726e+00  2.30187979e+00  2.32328663e+00  2.33528169e+00
  2.33963047e+00  2.36028179e+00  2.36667297e+00  2.37139699e+00
  2.39451435e+00  2.41208842e+00  2.41680696e+00  2.42049573e+00
  2.44417346e+00  2.47081922e+00  2.48367904e+00  2.48576431e+00
  2.50926416e+00  2.52992727e+00  2.54283348e+00  2.54578936e+00
  2.56887263e+00  2.57235251e+00  2.59207873e+00  2.60620778e+00
  2.62897255e+00  2.64317731e+00  2.64881889e+00  2.66282420e+00
  2.67561950e+00  2.68696906e+00  2.69326723e+00  2.71423302e+00
  2.71755926e+00  2.73284925e+00  2.74353754e+00  2.75283479e+00
  2.76893503e+00  2.77260034e+00  2.78126269e+00  2.80315066e+00
  2.81400771e+00  2.81835465e+00  2.83108633e+00  2.83691902e+00
  2.84230707e+00  2.86399556e+00  2.86758096e+00  2.87509539e+00
  2.88374403e+00  2.90053316e+00  2.90995021e+00  2.91763595e+00
  2.93513579e+00  2.94323749e+00  2.94726330e+00  2.96578524e+00
  2.97812805e+00  2.98779636e+00  3.00053029e+00  3.00639261e+00
  3.02650634e+00  3.02995692e+00  3.03375205e+00  3.04063177e+00
  3.05009350e+00  3.06042163e+00  3.08138347e+00  3.08698820e+00
  3.09529822e+00  3.09854667e+00  3.11845391e+00  3.13902782e+00
  3.15025573e+00  3.15871574e+00  3.18094094e+00  3.18747058e+00
  3.19430369e+00  3.19901446e+00  3.20265653e+00  3.21459080e+00
  3.22616897e+00  3.23732220e+00  3.24036841e+00  3.25573846e+00
  3.26472445e+00  3.27518694e+00  3.28113947e+00  3.28453909e+00
  3.29304715e+00  3.29992691e+00  3.30896754e+00  3.32153453e+00
  3.32595202e+00  3.33470281e+00  3.35046697e+00  3.35866750e+00
  3.37025370e+00  3.37375822e+00  3.38248186e+00  3.39267350e+00
  3.40242609e+00  3.41363201e+00  3.41953372e+00  3.42187825e+00
  3.43391366e+00  3.43706143e+00  3.44583900e+00  3.46422520e+00
  3.47723946e+00  3.48139002e+00  3.49436765e+00  3.50387709e+00
  3.51373694e+00  3.52088340e+00  3.53216254e+00  3.53355471e+00
  3.53994122e+00  3.54993343e+00  3.55782832e+00  3.56391918e+00
  3.56912699e+00  3.58365222e+00  3.59093791e+00  3.59239349e+00
  3.61865746e+00  3.62364717e+00  3.65129153e+00  3.67157741e+00
  3.68194655e+00  3.70871050e+00  3.73128305e+00  3.74405235e+00
  3.74667936e+00  3.76809012e+00  3.77257121e+00  3.77952401e+00
  3.78897486e+00  3.79725417e+00  3.81145145e+00  3.82514095e+00
  3.84102565e+00  3.86421588e+00  3.88946612e+00  3.90308037e+00
  3.92424769e+00  3.94153045e+00  3.95650331e+00  3.96642980e+00
  3.99563674e+00  4.00545465e+00  4.01398765e+00  4.03107107e+00
  4.04041641e+00  4.04570086e+00  4.05793235e+00  4.06318293e+00
  4.08880557e+00  4.09395570e+00  4.11929471e+00  4.13481442e+00
  4.13867544e+00  4.16513371e+00  4.19021487e+00  4.20562479e+00
  4.21887453e+00  4.23642639e+00  4.25142619e+00  4.26470268e+00
  4.28072902e+00  4.30921182e+00  4.31410808e+00  4.33903244e+00
  4.36748898e+00  4.39326620e+00  4.43809265e+00  4.45528251e+00
  4.47556487e+00  4.50535525e+00  4.52679014e+00  4.53069969e+00
  4.57825908e+00  4.64009963e+00  4.65148277e+00  4.67546886e+00
  4.72874431e+00  4.74429223e+00  4.84031340e+00  4.84363569e+00
  4.85066434e+00  4.86349543e+00  4.87463113e+00  4.91630006e+00
  4.95947316e+00  4.97078726e+00  4.97584432e+00  4.98102091e+00
  4.98825998e+00  5.03669041e+00  5.04429865e+00  5.06598289e+00
  5.10875950e+00  5.18599705e+00  5.20284273e+00  5.22861696e+00
  5.24120463e+00  5.24839513e+00  5.28439057e+00  5.29775165e+00
  5.32017768e+00  5.34604029e+00  5.35495157e+00  5.36180137e+00
  5.39670919e+00  5.41810354e+00  5.44503235e+00  5.46365768e+00
  5.48978960e+00  5.49511230e+00  5.53205146e+00  5.55755750e+00
  5.56347651e+00  5.57754936e+00  5.61634028e+00  5.66290589e+00
  5.67543470e+00  5.71417804e+00  5.76247461e+00  5.80861207e+00
  5.85451178e+00  5.86779627e+00  5.87990824e+00  5.90621654e+00
  5.96800485e+00  5.98915518e+00  6.03032025e+00  6.06143546e+00
  6.15978402e+00  6.27446284e+00  6.29981243e+00  6.37875575e+00
  6.40889005e+00  6.46329490e+00  6.47314403e+00  6.50048407e+00
  6.54767413e+00  6.56906026e+00  6.74708118e+00  6.78468056e+00
  6.79457717e+00  6.84914110e+00  6.88338821e+00  6.91912340e+00
  6.98428666e+00  7.07399514e+00  7.18748875e+00  7.19252792e+00
  7.35136675e+00  7.40897032e+00  8.97705114e+00  9.01002806e+00
  9.44269002e+00  9.50121755e+00  9.54286590e+00  9.60990754e+00
  1.96787250e+01  2.03166722e+01  2.22836492e+01  2.23304008e+01
  2.25954363e+01  2.26850193e+01  2.27211755e+01  2.27681238e+01
  2.29172300e+01  2.30208051e+01  2.31069076e+01  2.32366517e+01
  2.34170743e+01  3.24796083e+01  3.25999570e+01  4.38049692e+01
  4.38818833e+01  4.39492724e+01]
nelec by numeric integration = 143.99999159269538
    CPU time for vxc     56.75 sec, wall time      3.45 sec
    CPU time for df vj and vk     80.68 sec, wall time      6.08 sec
    CPU time for df vj and vk     63.36 sec, wall time      3.50 sec
E1 = -5026.715012635247  Ecoul = 2169.1880411208526  Exc = -153.50132807076608
Extra cycle  E= -1555.66395340636  delta_E= -1.36e-12  |g|= 4.99e-06  |ddm|= 6.09e-06
    CPU time for scf_cycle    741.46 sec, wall time     57.55 sec
    CPU time for SCF    741.46 sec, wall time     57.55 sec
converged SCF energy = -1555.66395340636
SCF Done after 57.57 seconds
after SCF memory used: 4.72 GB
Converting <class 'pyscf.df.df_jk.density_fit.<locals>.DFHF'> to RHF
Converting <class 'pyscf.df.df_jk.density_fit.<locals>.DFHF'> to RHF
hdiag shape (39312,)
n_occ =  72
n_vir =  546
max_vir =  147
A_size =  39312
A_reduced_size = 10584
a_x = 0.56
beta = 8.0
alpha = 4.58
Q-Gamma tensors building time = 0.27
after Q matrix memory used: 4.84 GB
stapol
|-------- In-house Developed stapol Starts ---------|
Residual conv = 1e-05


initial guess sTDDFT
preconditioner sTDDFT
Static polarizability procedure aborted
sTDDFT Stapol precond Converged
after 5 steps 0.1044 s
conv threhsold = 1.00e-02
final subspace: 13
max_norm =  5.96e-03
initial_cost 0.0044s  4.20%
MVcost     0.0711s  68.16%
GScost     0.0118s  11.30%
subgencost 0.0068s  6.51%
subcost    0.0004s  0.41%
alpha tensor of initial guess:
[[328.29694852   8.07171201   1.28847814]
 [  8.07171201 219.64763964  -1.61817702]
 [  1.28847814  -1.61817702 186.67851326]]
new_m = 3

Iteration 0
    CPU time for df vj and vk    230.57 sec, wall time     14.52 sec
    CPU time for df vj and vk    174.37 sec, wall time      9.20 sec
max_norm = 5.74e-01
Static polarizability procedure aborted
sTDDFT Stapol precond Converged
after 5 steps 0.1075 s
conv threhsold = 1.00e-02
final subspace: 14
max_norm =  4.45e-03
initial_cost 0.0038s  3.50%
MVcost     0.0758s  70.57%
GScost     0.0134s  12.43%
subgencost 0.0063s  5.87%
subcost    0.0003s  0.31%

Iteration 1
    CPU time for df vj and vk    227.47 sec, wall time     14.03 sec
    CPU time for df vj and vk    172.70 sec, wall time      9.13 sec
max_norm = 2.17e-01
Static polarizability procedure aborted
sTDDFT Stapol precond Converged
after 5 steps 0.1256 s
conv threhsold = 1.00e-02
final subspace: 13
max_norm =  9.43e-03
initial_cost 0.0048s  3.83%
MVcost     0.0851s  67.76%
GScost     0.0117s  9.34%
subgencost 0.0073s  5.85%
subcost    0.0003s  0.27%

Iteration 2
    CPU time for df vj and vk    228.24 sec, wall time     14.13 sec
    CPU time for df vj and vk    173.72 sec, wall time      8.97 sec
max_norm = 8.19e-02
Static polarizability procedure aborted
sTDDFT Stapol precond Converged
after 5 steps 0.1106 s
conv threhsold = 1.00e-02
final subspace: 13
max_norm =  7.75e-03
initial_cost 0.0044s  4.01%
MVcost     0.0777s  70.29%
GScost     0.0113s  10.19%
subgencost 0.0066s  6.00%
subcost    0.0003s  0.28%

Iteration 3
    CPU time for df vj and vk    226.99 sec, wall time     14.40 sec
    CPU time for df vj and vk    173.59 sec, wall time      9.28 sec
max_norm = 2.84e-02
Static polarizability procedure aborted
sTDDFT Stapol precond Converged
after 5 steps 0.1292 s
conv threhsold = 1.00e-02
final subspace: 13
max_norm =  5.79e-03
initial_cost 0.0053s  4.12%
MVcost     0.0923s  71.42%
GScost     0.0122s  9.44%
subgencost 0.0075s  5.77%
subcost    0.0003s  0.25%

Iteration 4
    CPU time for df vj and vk    228.69 sec, wall time     14.60 sec
    CPU time for df vj and vk    179.98 sec, wall time      9.39 sec
max_norm = 8.14e-03
Static polarizability procedure aborted
sTDDFT Stapol precond Converged
after 4 steps 0.1727 s
conv threhsold = 1.00e-02
final subspace: 12
max_norm =  9.43e-03
initial_cost 0.0077s  4.44%
MVcost     0.1187s  68.73%
GScost     0.0257s  14.89%
subgencost 0.0049s  2.86%
subcost    0.0003s  0.15%

Iteration 5
    CPU time for df vj and vk    229.77 sec, wall time     14.68 sec
    CPU time for df vj and vk    173.85 sec, wall time      9.29 sec
max_norm = 3.13e-03
Static polarizability procedure aborted
sTDDFT Stapol precond Converged
after 4 steps 0.0907 s
conv threhsold = 1.00e-02
final subspace: 12
max_norm =  8.75e-03
initial_cost 0.0016s  1.77%
MVcost     0.0653s  72.03%
GScost     0.0106s  11.73%
subgencost 0.0051s  5.68%
subcost    0.0003s  0.30%

Iteration 6
    CPU time for df vj and vk    226.13 sec, wall time     14.30 sec
    CPU time for df vj and vk    173.05 sec, wall time      9.48 sec
max_norm = 1.02e-03
Static polarizability procedure aborted
sTDDFT Stapol precond Converged
after 4 steps 0.0947 s
conv threhsold = 1.00e-02
final subspace: 12
max_norm =  6.20e-03
initial_cost 0.0016s  1.70%
MVcost     0.0708s  74.74%
GScost     0.0099s  10.46%
subgencost 0.0049s  5.17%
subcost    0.0003s  0.28%

Iteration 7
    CPU time for df vj and vk    227.39 sec, wall time     14.18 sec
    CPU time for df vj and vk    173.99 sec, wall time      9.04 sec
max_norm = 3.15e-04
Static polarizability procedure aborted
sTDDFT Stapol precond Converged
after 4 steps 0.0980 s
conv threhsold = 1.00e-02
final subspace: 12
max_norm =  4.66e-03
initial_cost 0.0016s  1.62%
MVcost     0.0754s  76.95%
GScost     0.0097s  9.88%
subgencost 0.0048s  4.92%
subcost    0.0003s  0.27%

Iteration 8
    CPU time for df vj and vk    226.06 sec, wall time     14.11 sec
    CPU time for df vj and vk    172.57 sec, wall time      8.95 sec
max_norm = 1.10e-04
Static polarizability procedure aborted
sTDDFT Stapol precond Converged
after 4 steps 0.0937 s
conv threhsold = 1.00e-02
final subspace: 12
max_norm =  6.58e-03
initial_cost 0.0017s  1.78%
MVcost     0.0707s  75.47%
GScost     0.0101s  10.73%
subgencost 0.0049s  5.26%
subcost    0.0003s  0.29%

Iteration 9
    CPU time for df vj and vk    227.36 sec, wall time     14.55 sec
    CPU time for df vj and vk    177.65 sec, wall time      9.25 sec
max_norm = 3.16e-05
Static polarizability procedure aborted
sTDDFT Stapol precond Converged
after 4 steps 0.0870 s
conv threhsold = 1.00e-02
final subspace: 12
max_norm =  6.25e-03
initial_cost 0.0016s  1.83%
MVcost     0.0643s  74.00%
GScost     0.0098s  11.27%
subgencost 0.0050s  5.74%
subcost    0.0003s  0.30%

Iteration 10
    CPU time for df vj and vk    229.34 sec, wall time     14.28 sec
    CPU time for df vj and vk    173.09 sec, wall time      9.00 sec
max_norm = 8.76e-06
static polarizability precodure aborted

Static polarizability Converged
after 11 steps; 344.1348 s
final subspace (33, 33)
max_norm =  8.76e-06
initial_cost 0.1114s  0.03%
MVcost     342.1553s  99.42%
Pcost      1.1264s  0.33%
Static polarizability tensor alpha
[[310.44644517   9.70351132   4.66935447]
 [  9.70351132 177.06700647  -5.68294416]
 [  4.66935447  -5.68294416 110.54211723]]


initial guess Adiag
preconditioner Adiag
alpha tensor of initial guess:
[[272.29456906   4.73497286   7.20960496]
 [  4.73497286 225.1854986   -9.57837363]
 [  7.20960496  -9.57837363 143.34711492]]
new_m = 3

Iteration 0
    CPU time for df vj and vk    229.86 sec, wall time     14.75 sec
    CPU time for df vj and vk    174.46 sec, wall time      9.18 sec
max_norm = 5.88e-01

Iteration 1
    CPU time for df vj and vk    227.95 sec, wall time     14.55 sec
    CPU time for df vj and vk    174.93 sec, wall time      9.27 sec
max_norm = 1.98e-01

Iteration 2
    CPU time for df vj and vk    225.59 sec, wall time     13.98 sec
    CPU time for df vj and vk    174.03 sec, wall time      9.23 sec
max_norm = 8.47e-02

Iteration 3
    CPU time for df vj and vk    225.97 sec, wall time     13.96 sec
    CPU time for df vj and vk    173.90 sec, wall time      9.33 sec
max_norm = 3.94e-02

Iteration 4
    CPU time for df vj and vk    228.70 sec, wall time     14.20 sec
    CPU time for df vj and vk    177.86 sec, wall time      9.68 sec
max_norm = 1.69e-02

Iteration 5
    CPU time for df vj and vk    229.50 sec, wall time     14.23 sec
    CPU time for df vj and vk    173.16 sec, wall time      8.99 sec
max_norm = 6.47e-03

Iteration 6
    CPU time for df vj and vk    225.42 sec, wall time     13.94 sec
    CPU time for df vj and vk    177.78 sec, wall time      9.41 sec
max_norm = 2.89e-03

Iteration 7
    CPU time for df vj and vk    229.76 sec, wall time     14.42 sec
    CPU time for df vj and vk    175.91 sec, wall time      9.17 sec
max_norm = 1.08e-03

Iteration 8
    CPU time for df vj and vk    226.08 sec, wall time     14.39 sec
    CPU time for df vj and vk    177.45 sec, wall time      9.27 sec
max_norm = 4.47e-04

Iteration 9
    CPU time for df vj and vk    230.94 sec, wall time     14.31 sec
    CPU time for df vj and vk    173.13 sec, wall time      8.99 sec
max_norm = 2.05e-04

Iteration 10
    CPU time for df vj and vk    231.41 sec, wall time     14.58 sec
    CPU time for df vj and vk    172.51 sec, wall time      9.08 sec
max_norm = 7.81e-05

Iteration 11
    CPU time for df vj and vk    227.40 sec, wall time     14.32 sec
    CPU time for df vj and vk    172.87 sec, wall time      9.01 sec
max_norm = 3.22e-05

Iteration 12
    CPU time for df vj and vk     75.70 sec, wall time      5.12 sec
    CPU time for df vj and vk     59.63 sec, wall time      3.12 sec
max_norm = 1.16e-05

Iteration 13
    CPU time for df vj and vk     75.34 sec, wall time      4.93 sec
    CPU time for df vj and vk     60.25 sec, wall time      3.18 sec
max_norm = 8.41e-06
static polarizability precodure aborted

Static polarizability Converged
after 14 steps; 398.2326 s
final subspace (38, 38)
max_norm =  8.41e-06
initial_cost 0.0153s  0.00%
MVcost     397.2215s  99.75%
Pcost      0.0122s  0.00%
Static polarizability tensor alpha
[[310.44644518   9.70351132   4.66935447]
 [  9.70351132 177.06700647  -5.68294416]
 [  4.66935447  -5.68294416 110.54211722]]
xyzfile = 26_Firefly_luciferin.xyz
checkfile = True
method = RKS
functional = wb97x
basis_set = def2-tzvp
density_fit = True
grid_level = 3
nstates = 4
pytd = False
TDA = False
TDDFT = False
dynpol = False
dynpol_omega = []
stapol = True
sTDA = False
sTDDFT = False
Truncate_test = False
truncate_virtual = 40.0
ip_options = [0, 1]
conv_tolerance = 1e-05
initial_TOL = 0.01
precond_TOL = 0.01
extrainitial = 8
max = 30
eigensolver_tol = 1e-05
memory = 60000
verbose = 5
beta = []
alpha = []
|-------- In-house Developed stapol Ends ----------|
