curpath /scratch/pbsjobs/job.16219474.hpc
lib.num_threads() =  20
at beginning memory used: 0.05 GB
mol.max_memory 50000


System: uname_result(system='Linux', node='compt291', release='3.10.0-1127.el7.x86_64', version='#1 SMP Tue Feb 18 16:39:12 EST 2020', machine='x86_64', processor='x86_64')  Threads 20
Python 3.7.0 (default, Aug 23 2018, 14:24:33) 
[GCC 6.3.0]
numpy 1.18.1  scipy 1.4.1
Date: Mon Aug 30 15:00:34 2021
PySCF version 1.7.4
PySCF path  /home/zzz6/.local/lib/python3.7/site-packages/pyscf

[CONFIG] conf_file None
[INPUT] verbose = 5
[INPUT] max_memory = 50000 
[INPUT] num. atoms = 46
[INPUT] num. electrons = 262
[INPUT] charge = 0
[INPUT] spin (= nelec alpha-beta = 2S) = 0
[INPUT] symmetry False subgroup None
[INPUT] Mole.unit = angstrom
[INPUT]  1 C     -0.075469006356   2.698376776999  -1.393666497568 AA   -0.142615752907   5.099193089414  -2.633647989385 Bohr
[INPUT]  2 C     -0.243298869070   1.339130002559  -1.773001231282 AA   -0.459768228958   2.530588950025  -3.350486745640 Bohr
[INPUT]  3 C     -0.581397769078   1.067556398519  -3.100771230899 AA   -1.098682552990   2.017389215728  -5.859608401330 Bohr
[INPUT]  4 C     -0.722513045051   2.134027920314  -4.008683736391 AA   -1.365351776571   4.032728311569  -7.575314381777 Bohr
[INPUT]  5 C     -0.546676365965   3.476619725330  -3.609111638462 AA   -1.033068610445   6.569859120135  -6.820232549674 Bohr
[INPUT]  6 C     -0.219696838125   3.779396497934  -2.285942218596 AA   -0.415166854489   7.142024297236  -4.319804729728 Bohr
[INPUT]  7 H     -0.727393876974   0.036476447009  -3.437743559736 AA   -1.374575212166   0.068930494844  -6.496393814389 Bohr
[INPUT]  8 H     -0.972393071025   1.919951938348  -5.053707957650 AA   -1.837556589661   3.628183335806  -9.550123953494 Bohr
[INPUT]  9 H     -0.667670889471   4.280170027435  -4.342195719787 AA   -1.261715122445   8.088349118424  -8.205560689655 Bohr
[INPUT] 10 H     -0.079154559920   4.806941716354  -1.938906169259 AA   -0.149580439760   9.083803340655  -3.664001641130 Bohr
[INPUT] 11 C     -1.501385475034  -0.193978218011  -0.083072884688 AA   -2.837207355214  -0.366565706171  -0.156985000438 Bohr
[INPUT] 12 C     -2.454832448400   0.324527631847   0.802388094915 AA   -4.638961009171   0.613268344044   1.516293745001 Bohr
[INPUT] 13 C     -1.916516186861  -1.313516530775  -0.821252237094 AA   -3.621690706462  -2.482186503253  -1.551941807293 Bohr
[INPUT] 14 C     -3.719221941997  -0.254042184561   0.992369635089 AA   -7.028310866847  -0.480070152907   1.875306824652 Bohr
[INPUT] 15 C     -3.163054747926  -1.926440837911  -0.665552129418 AA   -5.977307190585  -3.640445578830  -1.257711246221 Bohr
[INPUT] 16 C     -4.075220156154  -1.387138542175   0.252808321537 AA   -7.701049992439  -2.621311941539   0.477738489716 Bohr
[INPUT] 17 C      1.239291118887  -0.527919093658  -0.406791892771 AA    2.341920803302  -0.997622502942  -0.768725267031 Bohr
[INPUT] 18 C      1.279206104242  -1.799029833736   0.186071912272 AA    2.417349193890  -3.399673675684   0.351624953668 Bohr
[INPUT] 19 C      2.442317917060  -0.113025947348  -1.000601717395 AA    4.615311972361  -0.213588085458  -1.890863205646 Bohr
[INPUT] 20 C      2.410526415881  -2.625456464178   0.165257350044 AA    4.555234742044  -4.961393669266   0.312291131655 Bohr
[INPUT] 21 C      3.598897234193  -0.901541318298  -1.046425674679 AA    6.800930123080  -1.703666181563  -1.977457934856 Bohr
[INPUT] 22 C      3.579211485031  -2.172915403737  -0.459084327226 AA    6.763729448606  -4.106215004911  -0.867543646538 Bohr
[INPUT] 23 F      2.528699032192   1.115767834894  -1.552341557859 AA    4.778548622295   2.108495626549  -2.933500396134 Bohr
[INPUT] 24 F      4.716085796355  -0.451288614488  -1.631346116257 AA    8.912110535061  -0.852811884517  -3.082797374099 Bohr
[INPUT] 25 F      4.670139111472  -2.944507330844  -0.486005078167 AA    8.825283884301  -5.564312427069  -0.918416492884 Bohr
[INPUT] 26 F      2.386323015299  -3.833318615508   0.742853115617 AA    4.509496943661  -7.243922331507   1.403788939295 Bohr
[INPUT] 27 F      0.203182360921  -2.291179484923   0.840958506349 AA    0.383959015483  -4.329701728726   1.589181259124 Bohr
[INPUT] 28 F     -3.496469584535  -3.005205961026  -1.385270643217 AA   -6.607369917643  -5.679016214249  -2.617782124081 Bohr
[INPUT] 29 F     -5.277207132854  -1.949574791279   0.416309506639 AA   -9.972476183696  -3.684162414872   0.786710950601 Bohr
[INPUT] 30 F     -4.588265816508   0.278247511902   1.861588861171 AA   -8.670565779905   0.525811592336   3.517893104154 Bohr
[INPUT] 31 F     -2.196195287835   1.438174708322   1.522747766407 AA   -4.150207610069   2.717756318005   2.877576235302 Bohr
[INPUT] 32 N      0.297967247280   1.727086300334   0.530807698346 AA    0.563076491450   3.263720101120   1.003081174684 Bohr
[INPUT] 33 N      0.272079425819   2.868107138384  -0.061745706326 AA    0.514155598927   5.419936987455  -0.116682474323 Bohr
[INPUT] 34 B     -0.051230384812   0.467455771212  -0.433377605076 AA   -0.096811396550   0.883363382938  -0.818964982113 Bohr
[INPUT] 35 F     -1.077423037270  -1.853547320000  -1.734390775345 AA   -2.036034460737  -3.502696793721  -3.277523558374 Bohr
[INPUT] 36 C      0.711355117210   1.669559263790   1.883646814586 AA    1.344266348834   3.155009757293   3.559576594976 Bohr
[INPUT] 37 C      1.292176720873   2.792519192826   2.506894891910 AA    2.441860106989   5.277096472033   4.737344768780 Bohr
[INPUT] 38 C      0.536736230535   0.465078217253   2.592344045846 AA    1.014284476843   0.878870457109   4.898820267296 Bohr
[INPUT] 39 C      1.694514226636   2.701633534719   3.840456233204 AA    3.202167802521   5.105347469559   7.257410474135 Bohr
[INPUT] 40 H      1.419405961195   3.711032488041   1.929980774298 AA    2.682288526234   7.012835041761   3.647135089099 Bohr
[INPUT] 41 C      0.943640971462   0.390374954235   3.927539978634 AA    1.783222995981   0.737701749394   7.421974902898 Bohr
[INPUT] 42 H      0.074416146111  -0.397762513751   2.109297259604 AA    0.140626135395  -0.751662213609   3.985994135947 Bohr
[INPUT] 43 C      1.523843128887   1.502954690130   4.554994286886 AA    2.879646170396   2.840172741975   8.607691701173 Bohr
[INPUT] 44 H      2.150363934408   3.569720418816   4.327141840932 AA    4.063598904174   6.745793932829   8.177112981508 Bohr
[INPUT] 45 H      0.804208640589  -0.543903122036   4.480050750810 AA    1.519734077722  -1.027827938944   8.466068943183 Bohr
[INPUT] 46 H      1.844942148683   1.437570020738   5.599449660054 AA    3.486435376678   2.716613624080  10.581426305792 Bohr
[INPUT] ---------------- BASIS SET ---------------- 
[INPUT] l, kappa, [nprim/nctr], expnt,             c_1 c_2 ...
[INPUT] F
[INPUT] 0    0    [6    /1   ]  35479.100441      0.00021545014888
                                5318.4728983      0.0016700686527
                                1210.4810975      0.0086733211476
                                342.8551814       0.035049933175
                                112.01943181      0.11165320133
                                40.714740248      0.25988506647
[INPUT] 0    0    [2    /1   ]  16.039678111      0.3942296688
                                6.503818674       0.24998238551
[INPUT] 0    0    [1    /1   ]  1.5440477509         1
[INPUT] 0    0    [1    /1   ]  0.61223452862        1
[INPUT] 0    0    [1    /1   ]  0.24027979698        1
[INPUT] 1    0    [4    /1   ]  80.233900483      0.0063685999134
                                18.594010743      0.04430314353
                                5.6867902653      0.16867248708
                                1.9511006294      0.36166346255
[INPUT] 1    0    [1    /1   ]  0.66970211298        1
[INPUT] 1    0    [1    /1   ]  0.2165130041         1
[INPUT] 2    0    [1    /1   ]  3.107                1
[INPUT] 2    0    [1    /1   ]  0.855                1
[INPUT] 3    0    [1    /1   ]  1.917                1
[INPUT] N
[INPUT] 0    0    [6    /1   ]  19730.800647      0.00021887984991
                                2957.8958745      0.0016960708803
                                673.22133595      0.0087954603538
                                190.68249494      0.035359382605
                                62.295441898      0.11095789217
                                22.654161182      0.24982972552
[INPUT] 0    0    [2    /1   ]  8.9791477428      0.40623896148
                                3.686300237       0.24338217176
[INPUT] 0    0    [1    /1   ]  0.84660076805        1
[INPUT] 0    0    [1    /1   ]  0.33647133771        1
[INPUT] 0    0    [1    /1   ]  0.13647653675        1
[INPUT] 1    0    [4    /1   ]  49.20038051       0.0055552416751
                                11.346790537      0.038052379723
                                3.4273972411      0.14953671029
                                1.1785525134      0.3494930523
[INPUT] 1    0    [1    /1   ]  0.41642204972        1
[INPUT] 1    0    [1    /1   ]  0.14260826011        1
[INPUT] 2    0    [1    /1   ]  1.654                1
[INPUT] 2    0    [1    /1   ]  0.469                1
[INPUT] 3    0    [1    /1   ]  1.093                1
[INPUT] H
[INPUT] 0    0    [3    /1   ]  34.061341         0.0060251978
                                5.1235746         0.045021094
                                1.1646626         0.20189726
[INPUT] 0    0    [1    /1   ]  0.32723041           1
[INPUT] 0    0    [1    /1   ]  0.10307241           1
[INPUT] 1    0    [1    /1   ]  0.8                  1
[INPUT] C
[INPUT] 0    0    [6    /1   ]  13575.349682      0.00022245814352
                                2035.233368       0.0017232738252
                                463.22562359      0.0089255715314
                                131.20019598      0.035727984502
                                42.853015891      0.11076259931
                                15.584185766      0.24295627626
[INPUT] 0    0    [2    /1   ]  6.2067138508      0.41440263448
                                2.5764896527      0.23744968655
[INPUT] 0    0    [1    /1   ]  0.57696339419        1
[INPUT] 0    0    [1    /1   ]  0.22972831358        1
[INPUT] 0    0    [1    /1   ]  0.095164440028       1
[INPUT] 1    0    [4    /1   ]  34.697232244      0.0053333657805
                                7.9582622826      0.035864109092
                                2.3780826883      0.14215873329
                                0.81433208183     0.34270471845
[INPUT] 1    0    [1    /1   ]  0.28887547253        1
[INPUT] 1    0    [1    /1   ]  0.10056823671        1
[INPUT] 2    0    [1    /1   ]  1.097                1
[INPUT] 2    0    [1    /1   ]  0.318                1
[INPUT] 3    0    [1    /1   ]  0.761                1
[INPUT] B
[INPUT] 0    0    [6    /1   ]  8564.8660687      0.00022837198155
                                1284.1516263      0.0017682576447
                                292.27871604      0.0091407080516
                                82.775469176      0.036342638989
                                27.017939269      0.11063458441
                                9.814961966       0.23367344321
[INPUT] 0    0    [2    /1   ]  3.9318559059      0.41818777978
                                1.6595599712      0.22325473798
[INPUT] 0    0    [1    /1   ]  0.35762965239        1
[INPUT] 0    0    [1    /1   ]  0.14246277496        1
[INPUT] 0    0    [1    /1   ]  0.060560594768       1
[INPUT] 1    0    [4    /1   ]  22.453875803      0.0050265575179
                                5.104505833       0.032801738965
                                1.4986081344      0.13151230768
                                0.50927831315     0.33197167769
[INPUT] 1    0    [1    /1   ]  0.18147077798        1
[INPUT] 1    0    [1    /1   ]  0.064621893904       1
[INPUT] 2    0    [1    /1   ]  0.661                1
[INPUT] 2    0    [1    /1   ]  0.199                1
[INPUT] 3    0    [1    /1   ]  0.49                 1

nuclear repulsion = 4280.84137352411
number of shells = 443
number of NR pGTOs = 1774
number of NR cGTOs = 1201
basis = def2-tzvp
ecp = {}
CPU time:         2.29
RKS
Density fitting turned on
Molecule built
Calculating SCF Energy...


******** <class 'pyscf.df.df_jk.density_fit.<locals>.DFHF'> ********
method = DFHF-RKS-RHF
initial guess = chkfile
damping factor = 0
level_shift factor = 0
DIIS = <class 'pyscf.scf.diis.CDIIS'>
diis_start_cycle = 1
diis_space = 8
SCF conv_tol = 1e-10
SCF conv_tol_grad = None
SCF max_cycles = 50
direct_scf = True
direct_scf_tol = 1e-13
chkfile to save SCF result = 46_Azobenzene_3a_wb97x.chk
max_memory 50000 MB (current use 55 MB)
XC functionals = wb97x
small_rho_cutoff = 1e-07
radial grids: 
    Treutler-Ahlrichs [JCP 102, 346 (1995); DOI:10.1063/1.469408] (M4) radial grids
    
becke partition: Becke, JCP 88, 2547 (1988); DOI:10.1063/1.454033
pruning grids: <function nwchem_prune at 0x7f88b4064e18>
grids dens level: 3
symmetrized grids: False
atomic radii adjust function: <function treutler_atomic_radii_adjust at 0x7f88b4064d90>
Set gradient conv threshold to 1e-05
atom C rad-grids = 75, ang-grids = [ 50  50  50  50  50  50  50  50  50  50  50  50  50  50  50  50  50  50
  50  50  50  50  50  86  86  86  86  86  86  86  86  86  86 266 266 266
 266 266 266 266 302 302 302 302 302 302 302 302 302 302 302 302 302 302
 302 302 302 302 302 302 266 266 266 266 266 266 266 266 266 266 266 266
 266 266 266]
atom H rad-grids = 50, ang-grids = [ 50  50  50  50  50  50  50  50  50  50  50  50  50  50  86  86  86  86
 266 266 266 266 302 302 302 302 302 302 302 302 302 302 302 302 302 266
 266 266 266 266 266 266 266 266 266 266 266 266 266 266]
atom F rad-grids = 75, ang-grids = [ 50  50  50  50  50  50  50  50  50  50  50  50  50  50  50  50  50  50
  50  50  50  86  86  86  86  86  86  86  86  86 266 266 266 266 266 266
 302 302 302 302 302 302 302 302 302 302 302 302 302 302 302 302 302 302
 266 266 266 266 266 266 266 266 266 266 266 266 266 266 266 266 266 266
 266 266 266]
atom N rad-grids = 75, ang-grids = [ 50  50  50  50  50  50  50  50  50  50  50  50  50  50  50  50  50  50
  50  50  50  50  50  86  86  86  86  86  86  86  86  86 266 266 266 266
 266 266 266 302 302 302 302 302 302 302 302 302 302 302 302 302 302 302
 302 302 302 302 266 266 266 266 266 266 266 266 266 266 266 266 266 266
 266 266 266]
atom B rad-grids = 75, ang-grids = [ 50  50  50  50  50  50  50  50  50  50  50  50  50  50  50  50  50  50
  50  50  50  50  50  50  50  86  86  86  86  86  86  86  86  86  86 266
 266 266 266 266 266 266 302 302 302 302 302 302 302 302 302 302 302 302
 302 302 302 302 302 302 302 302 302 266 266 266 266 266 266 266 266 266
 266 266 266]
tot grids = 609882
Drop grids 109282
    CPU time for setting up grids    153.74 sec, wall time      8.92 sec
nelec by numeric integration = 261.99993852084344
    CPU time for vxc    228.49 sec, wall time     12.98 sec
******** <class 'pyscf.df.df.DF'> ********
auxbasis = None
max_memory = 50000
_cderi_to_save = /tmp/job.16219474.hpc/tmpiq9wdp7v
Default auxbasis def2-tzvp-jkfit is used for F def2-tzvp
Default auxbasis def2-tzvp-jkfit is used for N def2-tzvp
Default auxbasis def2-tzvp-jkfit is used for H def2-tzvp
Default auxbasis def2-tzvp-jkfit is used for C def2-tzvp
Default auxbasis def2-tzvp-jkfit is used for B def2-tzvp
num shells = 979, num cGTOs = 2961
size of aux basis 2961
int3c2e [1/2], AO [0:343], nrow = 439453
int3c2e [2/2], AO [343:443], nrow = 282348
    CPU time for cholesky_eri    300.68 sec, wall time     52.20 sec
    CPU time for df vj and vk   1000.59 sec, wall time     97.37 sec
Create RSH-DF object <pyscf.df.df.DF object at 0x7f88b2199c18> for omega=0.3
******** <class 'pyscf.df.df.DF'> ********
auxbasis = None
max_memory = 50000
_cderi_to_save = /tmp/job.16219474.hpc/tmphufqj53y
Default auxbasis def2-tzvp-jkfit is used for F def2-tzvp
Default auxbasis def2-tzvp-jkfit is used for N def2-tzvp
Default auxbasis def2-tzvp-jkfit is used for H def2-tzvp
Default auxbasis def2-tzvp-jkfit is used for C def2-tzvp
Default auxbasis def2-tzvp-jkfit is used for B def2-tzvp
num shells = 979, num cGTOs = 2961
size of aux basis 2142
int3c2e [1/3], AO [0:265], nrow = 257403
int3c2e [2/3], AO [265:367], nrow = 252142
int3c2e [3/3], AO [367:443], nrow = 212256
    CPU time for cholesky_eri    406.61 sec, wall time     31.62 sec
    CPU time for df vj and vk    911.41 sec, wall time     59.32 sec
E1 = -11347.056892624598  Ecoul = 5268.985011568252  Exc = -255.7602159810283
init E= -2052.99072351327
cond(S) = 1712291.2059481347
    CPU time for initialize scf   2307.63 sec, wall time    180.12 sec
  HOMO = -0.337271284195143  LUMO = -0.064919742548735
  mo_energy =
[-2.47826825e+01 -2.47804215e+01 -2.47781884e+01 -2.47780259e+01
 -2.47767559e+01 -2.47767338e+01 -2.47766199e+01 -2.47740695e+01
 -2.47736627e+01 -2.47736365e+01 -1.45252848e+01 -1.45027725e+01
 -1.03850004e+01 -1.03822521e+01 -1.03785855e+01 -1.03779883e+01
 -1.03777392e+01 -1.03773037e+01 -1.03770098e+01 -1.03765891e+01
 -1.03764503e+01 -1.03745981e+01 -1.03344879e+01 -1.03156543e+01
 -1.03000727e+01 -1.02971519e+01 -1.02957186e+01 -1.02948674e+01
 -1.02927634e+01 -1.02915835e+01 -1.02913595e+01 -1.02907890e+01
 -1.02905538e+01 -1.02893011e+01 -1.02852514e+01 -1.02806000e+01
 -6.85366432e+00 -1.39241262e+00 -1.39036404e+00 -1.38423664e+00
 -1.38230224e+00 -1.37850119e+00 -1.37607914e+00 -1.36927492e+00
 -1.36728655e+00 -1.36661073e+00 -1.36490884e+00 -1.22852853e+00
 -1.04039087e+00 -1.02906045e+00 -1.02753099e+00 -1.00741900e+00
 -9.66144008e-01 -9.24517778e-01 -9.09815041e-01 -9.06280643e-01
 -9.05167902e-01 -9.03596221e-01 -9.02539910e-01 -8.89059242e-01
 -8.48483354e-01 -8.03018478e-01 -7.89576341e-01 -7.84682067e-01
 -7.83476081e-01 -7.74802508e-01 -7.68939670e-01 -7.44452806e-01
 -7.19994715e-01 -7.15717509e-01 -7.13282422e-01 -7.09116681e-01
 -7.06464098e-01 -7.00641823e-01 -6.93223298e-01 -6.84504527e-01
 -6.70978590e-01 -6.58728857e-01 -6.57214932e-01 -6.55151447e-01
 -6.53427597e-01 -6.48767006e-01 -6.45742119e-01 -6.34973739e-01
 -6.31739988e-01 -6.30742759e-01 -6.19559430e-01 -6.18689440e-01
 -6.13506227e-01 -6.09150528e-01 -6.06559023e-01 -6.01837130e-01
 -5.97496859e-01 -5.88707623e-01 -5.83360709e-01 -5.81995945e-01
 -5.81718695e-01 -5.78895400e-01 -5.73649640e-01 -5.63922660e-01
 -5.61454418e-01 -5.58233997e-01 -5.57371687e-01 -5.56309829e-01
 -5.54590403e-01 -5.50710591e-01 -5.48143814e-01 -5.31593890e-01
 -5.27210384e-01 -5.25083034e-01 -5.17703183e-01 -5.04737834e-01
 -4.97275450e-01 -4.94820684e-01 -4.93061066e-01 -4.89340442e-01
 -4.86547277e-01 -4.78890040e-01 -4.71129013e-01 -4.70492666e-01
 -4.58109863e-01 -4.37334331e-01 -4.27048148e-01 -3.99563772e-01
 -3.76489744e-01 -3.70358824e-01 -3.56422105e-01 -3.51893170e-01
 -3.50355933e-01 -3.46982348e-01 -3.37271284e-01 -6.49197425e-02
  3.15659611e-02  3.71724495e-02  4.48808987e-02  4.95648626e-02
  5.84292010e-02  6.05511841e-02  6.26887534e-02  7.37832593e-02
  8.44671883e-02  9.14992911e-02  1.22416185e-01  1.25397707e-01
  1.34418770e-01  1.44702922e-01  1.47146671e-01  1.52763655e-01
  1.54580065e-01  1.64001839e-01  1.70022540e-01  1.77621213e-01
  1.83183674e-01  1.93875412e-01  1.95126050e-01  1.99021849e-01
  1.99313460e-01  2.09542935e-01  2.11292536e-01  2.17458991e-01
  2.24923280e-01  2.31768316e-01  2.35296894e-01  2.38722360e-01
  2.43881111e-01  2.53017118e-01  2.59501053e-01  2.61771214e-01
  2.62499071e-01  2.66914760e-01  2.69935266e-01  2.70714205e-01
  2.72274329e-01  2.74707050e-01  2.75780399e-01  2.83072585e-01
  2.84997279e-01  2.86621112e-01  2.88661147e-01  2.92130714e-01
  2.95841707e-01  3.00739616e-01  3.03793263e-01  3.06767451e-01
  3.12517013e-01  3.13662322e-01  3.19602348e-01  3.24533767e-01
  3.30061610e-01  3.33859557e-01  3.40173894e-01  3.43000028e-01
  3.49338481e-01  3.49692569e-01  3.51408079e-01  3.60466526e-01
  3.63062146e-01  3.67523307e-01  3.68512076e-01  3.69577940e-01
  3.72871369e-01  3.78821910e-01  3.80602752e-01  3.84999259e-01
  3.85736013e-01  3.90269167e-01  3.94025672e-01  3.97747673e-01
  4.01369982e-01  4.07158932e-01  4.09986025e-01  4.16910528e-01
  4.20263068e-01  4.25837973e-01  4.26690692e-01  4.28071397e-01
  4.33329654e-01  4.36293804e-01  4.38957408e-01  4.42163184e-01
  4.44265577e-01  4.46043631e-01  4.53843253e-01  4.57956739e-01
  4.61190019e-01  4.63070645e-01  4.66598814e-01  4.67674413e-01
  4.72143547e-01  4.75285608e-01  4.79909917e-01  4.81069090e-01
  4.85907950e-01  4.87791576e-01  4.94130028e-01  4.95347168e-01
  4.97655500e-01  4.99736474e-01  5.02272528e-01  5.03557992e-01
  5.06426336e-01  5.10879443e-01  5.12175189e-01  5.15706238e-01
  5.17981329e-01  5.19898485e-01  5.21698231e-01  5.24047728e-01
  5.29868398e-01  5.30729657e-01  5.36464738e-01  5.40149830e-01
  5.41658248e-01  5.45723782e-01  5.49003114e-01  5.52086593e-01
  5.56142716e-01  5.59575061e-01  5.64455477e-01  5.66528699e-01
  5.69145018e-01  5.69907153e-01  5.73265231e-01  5.76611587e-01
  5.83149680e-01  5.86151531e-01  5.89399548e-01  5.95534679e-01
  6.01237590e-01  6.05389539e-01  6.08293347e-01  6.13829825e-01
  6.19888788e-01  6.26095129e-01  6.37512593e-01  6.42530709e-01
  6.48644416e-01  6.51886478e-01  6.58080390e-01  6.65800941e-01
  6.73316044e-01  6.77049169e-01  6.86597695e-01  6.95687127e-01
  6.96517179e-01  7.05782719e-01  7.08494721e-01  7.16020493e-01
  7.17337514e-01  7.20011568e-01  7.23407979e-01  7.24120790e-01
  7.28364389e-01  7.34538285e-01  7.39207033e-01  7.46966035e-01
  7.51182577e-01  7.52750009e-01  7.54752124e-01  7.57415705e-01
  7.62591908e-01  7.65513413e-01  7.66539772e-01  7.71947140e-01
  7.76010739e-01  7.81320613e-01  7.84542104e-01  7.87691061e-01
  7.94446098e-01  7.96924878e-01  8.00940182e-01  8.07035929e-01
  8.08667479e-01  8.09547387e-01  8.17022551e-01  8.22039507e-01
  8.25102617e-01  8.32007904e-01  8.35935973e-01  8.38691748e-01
  8.41193694e-01  8.48287745e-01  8.52246308e-01  8.54765886e-01
  8.57144819e-01  8.62052048e-01  8.69485845e-01  8.70624915e-01
  8.82294473e-01  8.88185142e-01  8.92000205e-01  8.94923928e-01
  8.96087292e-01  9.00615569e-01  9.04419035e-01  9.13058456e-01
  9.14723094e-01  9.20730935e-01  9.24801115e-01  9.29076811e-01
  9.30721188e-01  9.38921890e-01  9.43273248e-01  9.44520533e-01
  9.55886276e-01  9.58698859e-01  9.62719213e-01  9.67481393e-01
  9.71488246e-01  9.73540472e-01  9.77781684e-01  9.82683090e-01
  9.86763910e-01  9.89570521e-01  9.94260999e-01  9.98898398e-01
  1.00494442e+00  1.01214552e+00  1.01597412e+00  1.01934559e+00
  1.02303868e+00  1.02697451e+00  1.03250165e+00  1.03858431e+00
  1.04005660e+00  1.04565611e+00  1.04910056e+00  1.05317072e+00
  1.06075025e+00  1.06253562e+00  1.06953759e+00  1.07269539e+00
  1.07861756e+00  1.08187266e+00  1.08340761e+00  1.08732079e+00
  1.09432738e+00  1.09858005e+00  1.10574348e+00  1.11265275e+00
  1.12197114e+00  1.12603168e+00  1.13125907e+00  1.13352098e+00
  1.14341715e+00  1.15084736e+00  1.15851971e+00  1.16179497e+00
  1.16299398e+00  1.17182800e+00  1.17225117e+00  1.18347510e+00
  1.19291801e+00  1.19607791e+00  1.19675713e+00  1.19868641e+00
  1.20492760e+00  1.20959745e+00  1.21206082e+00  1.21873924e+00
  1.22199667e+00  1.22703326e+00  1.23404125e+00  1.23818447e+00
  1.25174964e+00  1.25808802e+00  1.26060782e+00  1.26855551e+00
  1.27317108e+00  1.27925698e+00  1.28357205e+00  1.28827352e+00
  1.28993572e+00  1.29480703e+00  1.29876453e+00  1.30632931e+00
  1.31418669e+00  1.31831350e+00  1.32210957e+00  1.32370669e+00
  1.32940281e+00  1.33433453e+00  1.34290060e+00  1.34679878e+00
  1.34960686e+00  1.35425275e+00  1.35926855e+00  1.36267688e+00
  1.37008135e+00  1.37744203e+00  1.38312382e+00  1.39539118e+00
  1.40485207e+00  1.40644868e+00  1.41103192e+00  1.42072639e+00
  1.42369120e+00  1.43042074e+00  1.43240889e+00  1.44156589e+00
  1.45147796e+00  1.46121541e+00  1.46376115e+00  1.47118004e+00
  1.47881817e+00  1.48839645e+00  1.49298852e+00  1.49831556e+00
  1.50329296e+00  1.51582850e+00  1.51842651e+00  1.52633130e+00
  1.52900580e+00  1.53188703e+00  1.53403787e+00  1.53965241e+00
  1.54146998e+00  1.54843909e+00  1.54942528e+00  1.55788364e+00
  1.56207654e+00  1.56595967e+00  1.57471814e+00  1.57893963e+00
  1.58610335e+00  1.58628757e+00  1.59720805e+00  1.60234168e+00
  1.60530353e+00  1.61649291e+00  1.61906458e+00  1.62689608e+00
  1.63374020e+00  1.63859294e+00  1.64008042e+00  1.64889480e+00
  1.66150760e+00  1.66992282e+00  1.67518581e+00  1.68114326e+00
  1.68595613e+00  1.69621575e+00  1.70258202e+00  1.70906862e+00
  1.71569964e+00  1.71891831e+00  1.72715496e+00  1.72942958e+00
  1.74054160e+00  1.74784185e+00  1.75476078e+00  1.76405737e+00
  1.76475923e+00  1.76999717e+00  1.77702348e+00  1.77795236e+00
  1.78490864e+00  1.78812459e+00  1.79441797e+00  1.80518321e+00
  1.81048077e+00  1.81551648e+00  1.81921674e+00  1.82238578e+00
  1.82767834e+00  1.83828312e+00  1.84262308e+00  1.84785643e+00
  1.85069662e+00  1.85826592e+00  1.86358566e+00  1.87016504e+00
  1.87520229e+00  1.88436978e+00  1.88989181e+00  1.90228272e+00
  1.91049839e+00  1.91325034e+00  1.92718012e+00  1.92885058e+00
  1.93433847e+00  1.94415127e+00  1.94819209e+00  1.95229208e+00
  1.96685289e+00  1.98302260e+00  1.98530125e+00  1.99150572e+00
  2.00905450e+00  2.01539014e+00  2.02341684e+00  2.02556983e+00
  2.02897069e+00  2.03407357e+00  2.04094663e+00  2.05002772e+00
  2.05564041e+00  2.05826422e+00  2.06548247e+00  2.07479114e+00
  2.07980942e+00  2.08762284e+00  2.09866027e+00  2.09940931e+00
  2.10569125e+00  2.11267935e+00  2.11694381e+00  2.12362288e+00
  2.12436129e+00  2.12686086e+00  2.13103925e+00  2.13465507e+00
  2.14465389e+00  2.15045699e+00  2.15826228e+00  2.15900905e+00
  2.16095759e+00  2.17068425e+00  2.17232099e+00  2.18241620e+00
  2.18392625e+00  2.18910721e+00  2.19012664e+00  2.19592475e+00
  2.20208166e+00  2.21115591e+00  2.21633628e+00  2.21859483e+00
  2.22419150e+00  2.23599937e+00  2.24059810e+00  2.24235957e+00
  2.25110624e+00  2.26081326e+00  2.26994707e+00  2.27094570e+00
  2.27383192e+00  2.28271456e+00  2.29040759e+00  2.29569621e+00
  2.29977657e+00  2.30577589e+00  2.30634798e+00  2.31075681e+00
  2.31767706e+00  2.32484292e+00  2.32828519e+00  2.33361669e+00
  2.34128631e+00  2.34716284e+00  2.35223573e+00  2.35752795e+00
  2.36586910e+00  2.37321624e+00  2.38122696e+00  2.38954786e+00
  2.40012991e+00  2.40778390e+00  2.41779089e+00  2.42462837e+00
  2.43078071e+00  2.43448970e+00  2.44117440e+00  2.45735039e+00
  2.45845116e+00  2.46919956e+00  2.47283467e+00  2.49557538e+00
  2.50435276e+00  2.51762041e+00  2.52363802e+00  2.53339625e+00
  2.53759826e+00  2.55257974e+00  2.56191373e+00  2.56694410e+00
  2.57603229e+00  2.58519252e+00  2.59130428e+00  2.59768143e+00
  2.60085618e+00  2.60785012e+00  2.60931006e+00  2.61887335e+00
  2.61979083e+00  2.62757133e+00  2.63682137e+00  2.64067998e+00
  2.64388937e+00  2.65016199e+00  2.65363884e+00  2.66198008e+00
  2.67186514e+00  2.67354222e+00  2.67924670e+00  2.68579401e+00
  2.68931562e+00  2.69752472e+00  2.70040344e+00  2.70788056e+00
  2.71628101e+00  2.71747980e+00  2.72235172e+00  2.72839046e+00
  2.73104210e+00  2.73335254e+00  2.73545000e+00  2.74128183e+00
  2.74568524e+00  2.74688725e+00  2.75398076e+00  2.75764026e+00
  2.75896833e+00  2.76674608e+00  2.77143524e+00  2.77506861e+00
  2.78083935e+00  2.78326559e+00  2.79128243e+00  2.79691260e+00
  2.80513395e+00  2.80652445e+00  2.81140267e+00  2.81615470e+00
  2.82142934e+00  2.82376688e+00  2.83063626e+00  2.83503254e+00
  2.84227006e+00  2.84512710e+00  2.85835991e+00  2.86145828e+00
  2.87063960e+00  2.87368563e+00  2.87842143e+00  2.88168895e+00
  2.88772495e+00  2.89269023e+00  2.90152155e+00  2.90382781e+00
  2.90854820e+00  2.91282917e+00  2.91771079e+00  2.91903708e+00
  2.92175323e+00  2.92648406e+00  2.93045236e+00  2.93668993e+00
  2.94284326e+00  2.95181105e+00  2.95371088e+00  2.95753643e+00
  2.96338748e+00  2.96508571e+00  2.96603801e+00  2.96900667e+00
  2.97572305e+00  2.98102527e+00  2.98476664e+00  2.99015046e+00
  2.99655096e+00  3.00460395e+00  3.00464753e+00  3.00821345e+00
  3.01367815e+00  3.02031619e+00  3.02139055e+00  3.02665675e+00
  3.03466955e+00  3.04074185e+00  3.04676980e+00  3.04990848e+00
  3.05075241e+00  3.06029350e+00  3.06230631e+00  3.06706633e+00
  3.07108520e+00  3.07295135e+00  3.07704446e+00  3.08077106e+00
  3.09007841e+00  3.09441323e+00  3.09943065e+00  3.10300517e+00
  3.10413224e+00  3.12127463e+00  3.12463888e+00  3.13286291e+00
  3.13554662e+00  3.13898483e+00  3.14039123e+00  3.14328664e+00
  3.14951557e+00  3.15757374e+00  3.16105511e+00  3.16888385e+00
  3.16934259e+00  3.18287956e+00  3.19305309e+00  3.19758240e+00
  3.19936893e+00  3.20835149e+00  3.21164992e+00  3.21340529e+00
  3.21683962e+00  3.22365064e+00  3.22622692e+00  3.22974675e+00
  3.23331993e+00  3.23725634e+00  3.24148202e+00  3.24441414e+00
  3.24847767e+00  3.25175572e+00  3.25681828e+00  3.26030712e+00
  3.26357111e+00  3.26544309e+00  3.27463286e+00  3.27924578e+00
  3.28459210e+00  3.28853687e+00  3.29188325e+00  3.29916053e+00
  3.30563784e+00  3.30787840e+00  3.31129901e+00  3.31569745e+00
  3.31785816e+00  3.32481890e+00  3.33379493e+00  3.33679645e+00
  3.34651447e+00  3.35059692e+00  3.35473785e+00  3.35711682e+00
  3.36307220e+00  3.36895240e+00  3.37120880e+00  3.37577672e+00
  3.37929135e+00  3.39361787e+00  3.39506967e+00  3.40010691e+00
  3.40373990e+00  3.41223930e+00  3.41655394e+00  3.42271890e+00
  3.42596930e+00  3.43205259e+00  3.43929914e+00  3.43939507e+00
  3.44600444e+00  3.44829615e+00  3.45392382e+00  3.45957648e+00
  3.47137625e+00  3.47164363e+00  3.47768951e+00  3.47987173e+00
  3.48703742e+00  3.48850047e+00  3.49411364e+00  3.49490565e+00
  3.50525972e+00  3.51197370e+00  3.51724206e+00  3.51972565e+00
  3.52631073e+00  3.53310214e+00  3.53493168e+00  3.54573185e+00
  3.54666455e+00  3.54961782e+00  3.55437037e+00  3.55800028e+00
  3.56025674e+00  3.56231038e+00  3.56390945e+00  3.56860243e+00
  3.57140090e+00  3.57249141e+00  3.58038933e+00  3.58434133e+00
  3.58532416e+00  3.58802935e+00  3.59040912e+00  3.59826058e+00
  3.60226778e+00  3.60411926e+00  3.60986343e+00  3.61408852e+00
  3.61754340e+00  3.62497587e+00  3.63179887e+00  3.63597268e+00
  3.63735227e+00  3.64459810e+00  3.65837189e+00  3.66932049e+00
  3.67260528e+00  3.68293022e+00  3.68637917e+00  3.69398932e+00
  3.69838501e+00  3.70515121e+00  3.70990486e+00  3.71764979e+00
  3.72617862e+00  3.72999594e+00  3.73732333e+00  3.73969934e+00
  3.75932826e+00  3.76177371e+00  3.76396750e+00  3.77048686e+00
  3.77480911e+00  3.78071731e+00  3.78591108e+00  3.79709380e+00
  3.80571058e+00  3.81255204e+00  3.82689821e+00  3.83220694e+00
  3.83570354e+00  3.85137722e+00  3.85539776e+00  3.86334532e+00
  3.87414631e+00  3.88534201e+00  3.89555796e+00  3.90284421e+00
  3.91068534e+00  3.91644221e+00  3.92842061e+00  3.94595086e+00
  3.95273631e+00  3.96177066e+00  3.96427331e+00  3.96681391e+00
  3.97541014e+00  3.98083194e+00  3.99047608e+00  4.00529533e+00
  4.01281245e+00  4.02059641e+00  4.03177315e+00  4.04085987e+00
  4.04905471e+00  4.04988497e+00  4.05619662e+00  4.07507997e+00
  4.09100611e+00  4.10052763e+00  4.10895684e+00  4.12070734e+00
  4.13315138e+00  4.14183488e+00  4.14570865e+00  4.15408403e+00
  4.15551500e+00  4.16471215e+00  4.17128938e+00  4.17797900e+00
  4.18579114e+00  4.19347786e+00  4.19948416e+00  4.20278771e+00
  4.21169914e+00  4.21282623e+00  4.22710450e+00  4.23291056e+00
  4.23537209e+00  4.24515548e+00  4.24674804e+00  4.25508484e+00
  4.25612862e+00  4.25885182e+00  4.26401556e+00  4.26649031e+00
  4.26850450e+00  4.27328004e+00  4.28502820e+00  4.28894575e+00
  4.29337468e+00  4.29891610e+00  4.30264958e+00  4.31032746e+00
  4.31284607e+00  4.31712355e+00  4.33060457e+00  4.33580363e+00
  4.34352250e+00  4.34596573e+00  4.35097258e+00  4.35820403e+00
  4.36269807e+00  4.36647910e+00  4.36923404e+00  4.38141111e+00
  4.38683018e+00  4.40299540e+00  4.40966302e+00  4.41684855e+00
  4.42972253e+00  4.43619911e+00  4.44565407e+00  4.44991944e+00
  4.45918194e+00  4.46669481e+00  4.48372275e+00  4.49005681e+00
  4.49794024e+00  4.50124472e+00  4.50915832e+00  4.52852232e+00
  4.53761396e+00  4.55212813e+00  4.58187500e+00  4.61684954e+00
  4.62815030e+00  4.63914815e+00  4.64957470e+00  4.65465839e+00
  4.66442301e+00  4.67728082e+00  4.68741082e+00  4.69401541e+00
  4.71568305e+00  4.71874621e+00  4.74159892e+00  4.75918770e+00
  4.77234868e+00  4.80720731e+00  4.82727944e+00  4.83887942e+00
  4.85247800e+00  4.85988197e+00  4.86859004e+00  4.87913625e+00
  4.88650814e+00  4.89246000e+00  4.89866158e+00  4.90954416e+00
  4.91696237e+00  4.92808185e+00  4.93612393e+00  4.95177274e+00
  4.96509185e+00  4.97351131e+00  4.97967395e+00  4.99070103e+00
  5.00995078e+00  5.02734161e+00  5.03184086e+00  5.04360318e+00
  5.06842583e+00  5.07895507e+00  5.10067708e+00  5.10546024e+00
  5.12003137e+00  5.13133890e+00  5.16817020e+00  5.17613776e+00
  5.20486782e+00  5.21196764e+00  5.23151712e+00  5.24142817e+00
  5.25501223e+00  5.26758870e+00  5.28555208e+00  5.31295282e+00
  5.31932050e+00  5.34084374e+00  5.38059947e+00  5.41564263e+00
  5.42632764e+00  5.45020933e+00  5.47595620e+00  5.48760408e+00
  5.49394893e+00  5.50706768e+00  5.52654682e+00  5.54116874e+00
  5.54701164e+00  5.55186290e+00  5.57197216e+00  5.63986013e+00
  5.65406132e+00  5.66528894e+00  5.70526524e+00  5.70612078e+00
  5.78481726e+00  5.78508648e+00  5.79296778e+00  5.83061793e+00
  5.90939346e+00  5.94031340e+00  5.95090740e+00  5.95663677e+00
  6.10874307e+00  6.34493687e+00  6.42494929e+00  6.94358986e+00
  6.94550885e+00  6.94907650e+00  6.95069382e+00  6.95263286e+00
  6.95450968e+00  6.95617447e+00  6.95759492e+00  6.95893110e+00
  6.95982483e+00  6.96144489e+00  6.96373451e+00  6.96513759e+00
  6.96542494e+00  6.96648039e+00  6.97116013e+00  6.97695688e+00
  6.97770706e+00  6.97986790e+00  6.98749141e+00  7.00467532e+00
  7.00627353e+00  7.02762753e+00  7.02860186e+00  7.04590127e+00
  7.04765482e+00  7.06022038e+00  7.06204184e+00  7.08915600e+00
  7.09195190e+00  7.10941332e+00  7.11582896e+00  7.14009969e+00
  7.14208098e+00  7.15138704e+00  7.15399564e+00  7.19254229e+00
  7.19495343e+00  7.22793951e+00  7.22963797e+00  7.24527498e+00
  7.24962517e+00  7.25137656e+00  7.27222148e+00  7.27631826e+00
  7.30825827e+00  7.31058761e+00  7.34528114e+00  7.34645044e+00
  7.35446139e+00  7.35655402e+00  7.35701804e+00  7.35771995e+00
  7.42380371e+00  7.42469256e+00  7.45657264e+00  7.46074979e+00
  7.47619071e+00  7.47844815e+00  7.50452991e+00  7.50695205e+00
  7.55896155e+00  7.56216580e+00  7.65394857e+00  7.65658046e+00
  7.69892242e+00  7.70167327e+00  7.77895769e+00  7.78147470e+00
  8.05306099e+00  8.05727080e+00  8.38452540e+00  8.38696202e+00
  8.41356250e+00  8.41659886e+00  8.45065826e+00  8.45482460e+00
  8.46665100e+00  8.49715731e+00  8.50868843e+00  8.53276847e+00
  8.54227686e+00  8.54782787e+00  8.61762318e+00  8.61897092e+00
  8.65278351e+00  8.66200285e+00  8.66843843e+00  8.67267363e+00
  8.76283571e+00  8.76509958e+00  8.79629809e+00  8.79860551e+00
  8.80400709e+00  8.81188149e+00  8.83925528e+00  8.84284030e+00
  8.87183831e+00  8.87447826e+00  8.87869621e+00  8.88223536e+00
  8.93123004e+00  8.93594331e+00  8.96810973e+00  8.97092704e+00
  9.01326793e+00  9.01865922e+00  9.02685872e+00  9.02967005e+00
  9.11848632e+00  9.12284140e+00  9.12422203e+00  9.12802423e+00
  9.15742173e+00  9.15900096e+00  9.16534975e+00  9.18224130e+00
  9.21130310e+00  9.22087134e+00  9.40507217e+00  9.41567355e+00
  1.57663605e+01  2.22342020e+01  2.23667165e+01  2.23987034e+01
  2.24610142e+01  2.26000469e+01  2.26111861e+01  2.26373591e+01
  2.26679190e+01  2.27797080e+01  2.28553917e+01  2.28848512e+01
  2.28927759e+01  2.29074054e+01  2.29140723e+01  2.29211037e+01
  2.30229865e+01  2.30316396e+01  2.30580997e+01  2.30880658e+01
  2.31629569e+01  2.32442915e+01  2.34828028e+01  2.35729409e+01
  2.36448854e+01  3.24758122e+01  3.30473662e+01  5.71341604e+01
  5.71466166e+01  5.73217149e+01  5.73278503e+01  5.74065601e+01
  5.74171843e+01  5.75525738e+01  5.75712185e+01  5.75850790e+01
  5.76279756e+01]
nelec by numeric integration = 261.99993852077034
    CPU time for vxc    170.30 sec, wall time     10.31 sec
    CPU time for df vj and vk    704.88 sec, wall time     46.05 sec
    CPU time for df vj and vk    498.85 sec, wall time     26.44 sec
E1 = -11347.05682566884  Ecoul = 5268.984929934381  Exc = -255.76020130290212
cycle= 1 E= -2052.99072351325  delta_E= 1.36e-11  |g|= 9.51e-06  |ddm|= 1.83e-05
    CPU time for cycle= 1   1381.93 sec, wall time     84.03 sec
  HOMO = -0.337271036590352  LUMO = -0.064919319445085
  mo_energy =
[-2.47826855e+01 -2.47804250e+01 -2.47781908e+01 -2.47780289e+01
 -2.47767602e+01 -2.47767363e+01 -2.47766228e+01 -2.47740704e+01
 -2.47736673e+01 -2.47736375e+01 -1.45252837e+01 -1.45027709e+01
 -1.03849989e+01 -1.03822501e+01 -1.03785858e+01 -1.03779869e+01
 -1.03777390e+01 -1.03773026e+01 -1.03770076e+01 -1.03765888e+01
 -1.03764479e+01 -1.03745990e+01 -1.03344862e+01 -1.03156542e+01
 -1.03000718e+01 -1.02971523e+01 -1.02957184e+01 -1.02948658e+01
 -1.02927640e+01 -1.02915830e+01 -1.02913593e+01 -1.02907901e+01
 -1.02905535e+01 -1.02893003e+01 -1.02852530e+01 -1.02806015e+01
 -6.85366501e+00 -1.39241346e+00 -1.39036499e+00 -1.38423754e+00
 -1.38230321e+00 -1.37850197e+00 -1.37608021e+00 -1.36927591e+00
 -1.36728737e+00 -1.36661145e+00 -1.36491020e+00 -1.22852760e+00
 -1.04039034e+00 -1.02905997e+00 -1.02753037e+00 -1.00741894e+00
 -9.66143780e-01 -9.24517554e-01 -9.09814715e-01 -9.06280392e-01
 -9.05167695e-01 -9.03595908e-01 -9.02539904e-01 -8.89059118e-01
 -8.48483121e-01 -8.03018465e-01 -7.89576428e-01 -7.84682169e-01
 -7.83476162e-01 -7.74802502e-01 -7.68939404e-01 -7.44452657e-01
 -7.19994790e-01 -7.15717789e-01 -7.13282961e-01 -7.09116896e-01
 -7.06464355e-01 -7.00642333e-01 -6.93223935e-01 -6.84504742e-01
 -6.70978331e-01 -6.58729348e-01 -6.57215462e-01 -6.55151843e-01
 -6.53428119e-01 -6.48767428e-01 -6.45742424e-01 -6.34974003e-01
 -6.31740400e-01 -6.30742816e-01 -6.19559752e-01 -6.18689790e-01
 -6.13506850e-01 -6.09150902e-01 -6.06559336e-01 -6.01837447e-01
 -5.97497268e-01 -5.88708487e-01 -5.83361453e-01 -5.81996339e-01
 -5.81719396e-01 -5.78896161e-01 -5.73649674e-01 -5.63922989e-01
 -5.61455014e-01 -5.58234575e-01 -5.57372632e-01 -5.56310520e-01
 -5.54591339e-01 -5.50710796e-01 -5.48144280e-01 -5.31594097e-01
 -5.27210855e-01 -5.25083706e-01 -5.17703062e-01 -5.04737890e-01
 -4.97275817e-01 -4.94821102e-01 -4.93061106e-01 -4.89340395e-01
 -4.86547279e-01 -4.78890063e-01 -4.71128945e-01 -4.70492811e-01
 -4.58109871e-01 -4.37334238e-01 -4.27048004e-01 -3.99563627e-01
 -3.76489502e-01 -3.70358878e-01 -3.56421968e-01 -3.51893070e-01
 -3.50355732e-01 -3.46982292e-01 -3.37271037e-01 -6.49193194e-02
  3.15660511e-02  3.71726672e-02  4.48811129e-02  4.95649862e-02
  5.84294286e-02  6.05513857e-02  6.26890291e-02  7.37832728e-02
  8.44672877e-02  9.14994449e-02  1.22416304e-01  1.25397751e-01
  1.34418852e-01  1.44702955e-01  1.47146648e-01  1.52763685e-01
  1.54580197e-01  1.64001901e-01  1.70022620e-01  1.77621277e-01
  1.83183672e-01  1.93875490e-01  1.95126035e-01  1.99022052e-01
  1.99313496e-01  2.09542973e-01  2.11292489e-01  2.17459035e-01
  2.24923482e-01  2.31768437e-01  2.35296978e-01  2.38722432e-01
  2.43881212e-01  2.53017308e-01  2.59501188e-01  2.61771371e-01
  2.62499262e-01  2.66914954e-01  2.69935167e-01  2.70714288e-01
  2.72274426e-01  2.74707053e-01  2.75780520e-01  2.83072562e-01
  2.84997330e-01  2.86621211e-01  2.88661171e-01  2.92130807e-01
  2.95841838e-01  3.00739756e-01  3.03793343e-01  3.06767510e-01
  3.12517143e-01  3.13662457e-01  3.19602434e-01  3.24533809e-01
  3.30061708e-01  3.33859675e-01  3.40173987e-01  3.43000095e-01
  3.49338555e-01  3.49692684e-01  3.51408228e-01  3.60466616e-01
  3.63062167e-01  3.67523374e-01  3.68512080e-01  3.69577962e-01
  3.72871453e-01  3.78821988e-01  3.80602877e-01  3.84999250e-01
  3.85736085e-01  3.90269284e-01  3.94025786e-01  3.97747666e-01
  4.01370047e-01  4.07159047e-01  4.09986053e-01  4.16910580e-01
  4.20263149e-01  4.25838003e-01  4.26690724e-01  4.28071461e-01
  4.33329718e-01  4.36293923e-01  4.38957540e-01  4.42163228e-01
  4.44265620e-01  4.46043636e-01  4.53843310e-01  4.57956663e-01
  4.61190028e-01  4.63070711e-01  4.66598919e-01  4.67674523e-01
  4.72143650e-01  4.75285681e-01  4.79909977e-01  4.81069226e-01
  4.85907981e-01  4.87791649e-01  4.94130065e-01  4.95347235e-01
  4.97655612e-01  4.99736425e-01  5.02272645e-01  5.03558004e-01
  5.06426351e-01  5.10879529e-01  5.12175287e-01  5.15706290e-01
  5.17981369e-01  5.19898479e-01  5.21698303e-01  5.24047760e-01
  5.29868479e-01  5.30729719e-01  5.36464879e-01  5.40149893e-01
  5.41658336e-01  5.45723866e-01  5.49003156e-01  5.52086639e-01
  5.56142775e-01  5.59575088e-01  5.64455590e-01  5.66528739e-01
  5.69145095e-01  5.69907230e-01  5.73265223e-01  5.76611667e-01
  5.83149685e-01  5.86151622e-01  5.89399568e-01  5.95534785e-01
  6.01237581e-01  6.05389594e-01  6.08293305e-01  6.13829881e-01
  6.19888861e-01  6.26095189e-01  6.37512594e-01  6.42530857e-01
  6.48644474e-01  6.51886556e-01  6.58080474e-01  6.65800917e-01
  6.73316104e-01  6.77049337e-01  6.86597754e-01  6.95687236e-01
  6.96517299e-01  7.05782720e-01  7.08494879e-01  7.16020551e-01
  7.17337332e-01  7.20011647e-01  7.23408124e-01  7.24120899e-01
  7.28364381e-01  7.34538407e-01  7.39206952e-01  7.46965928e-01
  7.51182692e-01  7.52750049e-01  7.54752224e-01  7.57415698e-01
  7.62591930e-01  7.65513467e-01  7.66539925e-01  7.71947053e-01
  7.76010924e-01  7.81320622e-01  7.84542256e-01  7.87691296e-01
  7.94446159e-01  7.96924896e-01  8.00940273e-01  8.07036003e-01
  8.08667499e-01  8.09547426e-01  8.17022570e-01  8.22039593e-01
  8.25102674e-01  8.32007992e-01  8.35936002e-01  8.38691830e-01
  8.41193742e-01  8.48287808e-01  8.52246348e-01  8.54765963e-01
  8.57144869e-01  8.62052082e-01  8.69485869e-01  8.70624923e-01
  8.82294513e-01  8.88185070e-01  8.92000203e-01  8.94923973e-01
  8.96087374e-01  9.00615636e-01  9.04419080e-01  9.13058560e-01
  9.14723238e-01  9.20731026e-01  9.24801223e-01  9.29076885e-01
  9.30721248e-01  9.38922084e-01  9.43273382e-01  9.44520654e-01
  9.55886291e-01  9.58699003e-01  9.62719305e-01  9.67481465e-01
  9.71488297e-01  9.73540609e-01  9.77781701e-01  9.82683149e-01
  9.86763972e-01  9.89570565e-01  9.94261045e-01  9.98898492e-01
  1.00494447e+00  1.01214556e+00  1.01597404e+00  1.01934568e+00
  1.02303862e+00  1.02697460e+00  1.03250174e+00  1.03858432e+00
  1.04005665e+00  1.04565609e+00  1.04910053e+00  1.05317064e+00
  1.06075025e+00  1.06253559e+00  1.06953758e+00  1.07269529e+00
  1.07861755e+00  1.08187259e+00  1.08340765e+00  1.08732080e+00
  1.09432734e+00  1.09858011e+00  1.10574351e+00  1.11265271e+00
  1.12197122e+00  1.12603152e+00  1.13125900e+00  1.13352094e+00
  1.14341712e+00  1.15084734e+00  1.15851976e+00  1.16179499e+00
  1.16299402e+00  1.17182801e+00  1.17225110e+00  1.18347516e+00
  1.19291798e+00  1.19607777e+00  1.19675720e+00  1.19868630e+00
  1.20492756e+00  1.20959742e+00  1.21206082e+00  1.21873948e+00
  1.22199667e+00  1.22703328e+00  1.23404123e+00  1.23818454e+00
  1.25174970e+00  1.25808802e+00  1.26060789e+00  1.26855556e+00
  1.27317115e+00  1.27925705e+00  1.28357220e+00  1.28827351e+00
  1.28993577e+00  1.29480710e+00  1.29876458e+00  1.30632940e+00
  1.31418669e+00  1.31831358e+00  1.32210966e+00  1.32370671e+00
  1.32940297e+00  1.33433460e+00  1.34290072e+00  1.34679881e+00
  1.34960693e+00  1.35425277e+00  1.35926861e+00  1.36267693e+00
  1.37008148e+00  1.37744209e+00  1.38312385e+00  1.39539118e+00
  1.40485215e+00  1.40644875e+00  1.41103201e+00  1.42072641e+00
  1.42369129e+00  1.43042085e+00  1.43240903e+00  1.44156603e+00
  1.45147801e+00  1.46121559e+00  1.46376130e+00  1.47118022e+00
  1.47881819e+00  1.48839661e+00  1.49298873e+00  1.49831568e+00
  1.50329308e+00  1.51582866e+00  1.51842670e+00  1.52633149e+00
  1.52900605e+00  1.53188714e+00  1.53403796e+00  1.53965260e+00
  1.54147024e+00  1.54843909e+00  1.54942550e+00  1.55788379e+00
  1.56207667e+00  1.56595985e+00  1.57471832e+00  1.57893988e+00
  1.58610339e+00  1.58628782e+00  1.59720819e+00  1.60234182e+00
  1.60530372e+00  1.61649303e+00  1.61906467e+00  1.62689619e+00
  1.63374031e+00  1.63859310e+00  1.64008063e+00  1.64889500e+00
  1.66150768e+00  1.66992291e+00  1.67518594e+00  1.68114347e+00
  1.68595617e+00  1.69621587e+00  1.70258218e+00  1.70906872e+00
  1.71569980e+00  1.71891844e+00  1.72715516e+00  1.72942970e+00
  1.74054194e+00  1.74784195e+00  1.75476086e+00  1.76405752e+00
  1.76475942e+00  1.76999735e+00  1.77702365e+00  1.77795247e+00
  1.78490878e+00  1.78812474e+00  1.79441801e+00  1.80518329e+00
  1.81048077e+00  1.81551655e+00  1.81921678e+00  1.82238583e+00
  1.82767845e+00  1.83828310e+00  1.84262316e+00  1.84785657e+00
  1.85069654e+00  1.85826597e+00  1.86358574e+00  1.87016507e+00
  1.87520236e+00  1.88436978e+00  1.88989175e+00  1.90228272e+00
  1.91049845e+00  1.91325047e+00  1.92718037e+00  1.92885070e+00
  1.93433854e+00  1.94415148e+00  1.94819215e+00  1.95229222e+00
  1.96685299e+00  1.98302264e+00  1.98530134e+00  1.99150581e+00
  2.00905462e+00  2.01539025e+00  2.02341694e+00  2.02557003e+00
  2.02897074e+00  2.03407359e+00  2.04094682e+00  2.05002788e+00
  2.05564038e+00  2.05826419e+00  2.06548259e+00  2.07479131e+00
  2.07980947e+00  2.08762287e+00  2.09866031e+00  2.09940945e+00
  2.10569135e+00  2.11267930e+00  2.11694380e+00  2.12362283e+00
  2.12436136e+00  2.12686083e+00  2.13103917e+00  2.13465497e+00
  2.14465400e+00  2.15045708e+00  2.15826224e+00  2.15900900e+00
  2.16095759e+00  2.17068419e+00  2.17232110e+00  2.18241622e+00
  2.18392617e+00  2.18910718e+00  2.19012654e+00  2.19592476e+00
  2.20208165e+00  2.21115604e+00  2.21633633e+00  2.21859485e+00
  2.22419162e+00  2.23599946e+00  2.24059825e+00  2.24235960e+00
  2.25110637e+00  2.26081325e+00  2.26994724e+00  2.27094590e+00
  2.27383208e+00  2.28271468e+00  2.29040760e+00  2.29569626e+00
  2.29977666e+00  2.30577581e+00  2.30634811e+00  2.31075686e+00
  2.31767709e+00  2.32484312e+00  2.32828513e+00  2.33361674e+00
  2.34128639e+00  2.34716278e+00  2.35223573e+00  2.35752788e+00
  2.36586914e+00  2.37321629e+00  2.38122703e+00  2.38954778e+00
  2.40013002e+00  2.40778398e+00  2.41779085e+00  2.42462827e+00
  2.43078051e+00  2.43448967e+00  2.44117428e+00  2.45735028e+00
  2.45845107e+00  2.46919954e+00  2.47283465e+00  2.49557561e+00
  2.50435289e+00  2.51762051e+00  2.52363808e+00  2.53339632e+00
  2.53759826e+00  2.55257961e+00  2.56191332e+00  2.56694403e+00
  2.57603213e+00  2.58519245e+00  2.59130434e+00  2.59768114e+00
  2.60085595e+00  2.60785009e+00  2.60931003e+00  2.61887332e+00
  2.61979078e+00  2.62757125e+00  2.63682127e+00  2.64067983e+00
  2.64388933e+00  2.65016200e+00  2.65363893e+00  2.66198008e+00
  2.67186502e+00  2.67354223e+00  2.67924664e+00  2.68579407e+00
  2.68931564e+00  2.69752469e+00  2.70040352e+00  2.70788052e+00
  2.71628107e+00  2.71747987e+00  2.72235179e+00  2.72839049e+00
  2.73104223e+00  2.73335260e+00  2.73544999e+00  2.74128198e+00
  2.74568533e+00  2.74688732e+00  2.75398078e+00  2.75764023e+00
  2.75896835e+00  2.76674596e+00  2.77143524e+00  2.77506864e+00
  2.78083940e+00  2.78326560e+00  2.79128251e+00  2.79691270e+00
  2.80513411e+00  2.80652453e+00  2.81140276e+00  2.81615471e+00
  2.82142938e+00  2.82376684e+00  2.83063658e+00  2.83503259e+00
  2.84227010e+00  2.84512709e+00  2.85835999e+00  2.86145848e+00
  2.87063965e+00  2.87368569e+00  2.87842151e+00  2.88168897e+00
  2.88772507e+00  2.89269025e+00  2.90152156e+00  2.90382789e+00
  2.90854828e+00  2.91282925e+00  2.91771098e+00  2.91903710e+00
  2.92175336e+00  2.92648412e+00  2.93045246e+00  2.93668997e+00
  2.94284337e+00  2.95181122e+00  2.95371105e+00  2.95753662e+00
  2.96338763e+00  2.96508572e+00  2.96603804e+00  2.96900681e+00
  2.97572336e+00  2.98102545e+00  2.98476667e+00  2.99015065e+00
  2.99655113e+00  3.00460410e+00  3.00464760e+00  3.00821357e+00
  3.01367841e+00  3.02031639e+00  3.02139070e+00  3.02665680e+00
  3.03466963e+00  3.04074200e+00  3.04677004e+00  3.04990868e+00
  3.05075252e+00  3.06029350e+00  3.06230642e+00  3.06706646e+00
  3.07108505e+00  3.07295141e+00  3.07704444e+00  3.08077102e+00
  3.09007855e+00  3.09441333e+00  3.09943061e+00  3.10300520e+00
  3.10413229e+00  3.12127471e+00  3.12463903e+00  3.13286263e+00
  3.13554673e+00  3.13898493e+00  3.14039124e+00  3.14328681e+00
  3.14951559e+00  3.15757381e+00  3.16105526e+00  3.16888395e+00
  3.16934259e+00  3.18287966e+00  3.19305315e+00  3.19758246e+00
  3.19936906e+00  3.20835159e+00  3.21164992e+00  3.21340538e+00
  3.21683982e+00  3.22365075e+00  3.22622711e+00  3.22974682e+00
  3.23332020e+00  3.23725640e+00  3.24148210e+00  3.24441425e+00
  3.24847779e+00  3.25175581e+00  3.25681849e+00  3.26030713e+00
  3.26357105e+00  3.26544319e+00  3.27463285e+00  3.27924582e+00
  3.28459225e+00  3.28853695e+00  3.29188337e+00  3.29916060e+00
  3.30563784e+00  3.30787844e+00  3.31129916e+00  3.31569753e+00
  3.31785835e+00  3.32481894e+00  3.33379502e+00  3.33679658e+00
  3.34651461e+00  3.35059682e+00  3.35473777e+00  3.35711694e+00
  3.36307235e+00  3.36895258e+00  3.37120897e+00  3.37577685e+00
  3.37929154e+00  3.39361791e+00  3.39506978e+00  3.40010709e+00
  3.40374006e+00  3.41223936e+00  3.41655409e+00  3.42271899e+00
  3.42596948e+00  3.43205268e+00  3.43929935e+00  3.43939517e+00
  3.44600462e+00  3.44829631e+00  3.45392388e+00  3.45957668e+00
  3.47137633e+00  3.47164382e+00  3.47768964e+00  3.47987186e+00
  3.48703755e+00  3.48850056e+00  3.49411381e+00  3.49490571e+00
  3.50525974e+00  3.51197393e+00  3.51724222e+00  3.51972600e+00
  3.52631092e+00  3.53310234e+00  3.53493194e+00  3.54573201e+00
  3.54666462e+00  3.54961801e+00  3.55437042e+00  3.55800035e+00
  3.56025676e+00  3.56231053e+00  3.56390956e+00  3.56860253e+00
  3.57140104e+00  3.57249142e+00  3.58038936e+00  3.58434142e+00
  3.58532427e+00  3.58802927e+00  3.59040909e+00  3.59826056e+00
  3.60226781e+00  3.60411940e+00  3.60986350e+00  3.61408860e+00
  3.61754353e+00  3.62497586e+00  3.63179884e+00  3.63597260e+00
  3.63735219e+00  3.64459811e+00  3.65837165e+00  3.66932029e+00
  3.67260530e+00  3.68293016e+00  3.68637912e+00  3.69398931e+00
  3.69838495e+00  3.70515120e+00  3.70990472e+00  3.71764959e+00
  3.72617869e+00  3.72999606e+00  3.73732311e+00  3.73969910e+00
  3.75932819e+00  3.76177361e+00  3.76396758e+00  3.77048704e+00
  3.77480918e+00  3.78071735e+00  3.78591112e+00  3.79709384e+00
  3.80571063e+00  3.81255204e+00  3.82689805e+00  3.83220687e+00
  3.83570348e+00  3.85137730e+00  3.85539761e+00  3.86334534e+00
  3.87414645e+00  3.88534178e+00  3.89555795e+00  3.90284406e+00
  3.91068508e+00  3.91644207e+00  3.92842026e+00  3.94595057e+00
  3.95273644e+00  3.96177020e+00  3.96427288e+00  3.96681361e+00
  3.97540988e+00  3.98083200e+00  3.99047583e+00  4.00529536e+00
  4.01281243e+00  4.02059642e+00  4.03177323e+00  4.04085990e+00
  4.04905473e+00  4.04988504e+00  4.05619684e+00  4.07508002e+00
  4.09100640e+00  4.10052750e+00  4.10895703e+00  4.12070748e+00
  4.13315150e+00  4.14183485e+00  4.14570858e+00  4.15408363e+00
  4.15551497e+00  4.16471183e+00  4.17128905e+00  4.17797892e+00
  4.18579108e+00  4.19347787e+00  4.19948420e+00  4.20278786e+00
  4.21169916e+00  4.21282622e+00  4.22710444e+00  4.23291059e+00
  4.23537208e+00  4.24515575e+00  4.24674831e+00  4.25508518e+00
  4.25612874e+00  4.25885204e+00  4.26401581e+00  4.26649059e+00
  4.26850457e+00  4.27328009e+00  4.28502823e+00  4.28894598e+00
  4.29337475e+00  4.29891620e+00  4.30264973e+00  4.31032774e+00
  4.31284616e+00  4.31712363e+00  4.33060461e+00  4.33580376e+00
  4.34352274e+00  4.34596579e+00  4.35097279e+00  4.35820416e+00
  4.36269804e+00  4.36647926e+00  4.36923413e+00  4.38141096e+00
  4.38682993e+00  4.40299533e+00  4.40966315e+00  4.41684880e+00
  4.42972251e+00  4.43619914e+00  4.44565413e+00  4.44991951e+00
  4.45918208e+00  4.46669495e+00  4.48372279e+00  4.49005704e+00
  4.49794033e+00  4.50124468e+00  4.50915863e+00  4.52852249e+00
  4.53761393e+00  4.55212823e+00  4.58187503e+00  4.61684978e+00
  4.62815049e+00  4.63914835e+00  4.64957473e+00  4.65465856e+00
  4.66442315e+00  4.67728098e+00  4.68741109e+00  4.69401558e+00
  4.71568316e+00  4.71874633e+00  4.74159906e+00  4.75918785e+00
  4.77234880e+00  4.80720766e+00  4.82727959e+00  4.83887964e+00
  4.85247820e+00  4.85988208e+00  4.86859025e+00  4.87913659e+00
  4.88650856e+00  4.89246014e+00  4.89866190e+00  4.90954450e+00
  4.91696257e+00  4.92808234e+00  4.93612421e+00  4.95177283e+00
  4.96509205e+00  4.97351127e+00  4.97967424e+00  4.99070105e+00
  5.00995115e+00  5.02734174e+00  5.03184121e+00  5.04360356e+00
  5.06842611e+00  5.07895538e+00  5.10067740e+00  5.10546063e+00
  5.12003168e+00  5.13133953e+00  5.16817052e+00  5.17613793e+00
  5.20486779e+00  5.21196802e+00  5.23151738e+00  5.24142819e+00
  5.25501229e+00  5.26758906e+00  5.28555241e+00  5.31295318e+00
  5.31932073e+00  5.34084440e+00  5.38059964e+00  5.41564250e+00
  5.42632746e+00  5.45020958e+00  5.47595641e+00  5.48760442e+00
  5.49394926e+00  5.50706792e+00  5.52654709e+00  5.54116897e+00
  5.54701150e+00  5.55186264e+00  5.57197244e+00  5.63985984e+00
  5.65406095e+00  5.66528915e+00  5.70526551e+00  5.70612098e+00
  5.78481769e+00  5.78508679e+00  5.79296795e+00  5.83061871e+00
  5.90939399e+00  5.94031383e+00  5.95090732e+00  5.95663661e+00
  6.10874380e+00  6.34493775e+00  6.42495009e+00  6.94358888e+00
  6.94550771e+00  6.94907556e+00  6.95069271e+00  6.95263190e+00
  6.95450869e+00  6.95617345e+00  6.95759382e+00  6.95893024e+00
  6.95982387e+00  6.96144376e+00  6.96373360e+00  6.96513684e+00
  6.96542379e+00  6.96647954e+00  6.97115876e+00  6.97695665e+00
  6.97770549e+00  6.97986757e+00  6.98748984e+00  7.00467441e+00
  7.00627244e+00  7.02762669e+00  7.02860075e+00  7.04590022e+00
  7.04765386e+00  7.06021949e+00  7.06204086e+00  7.08915511e+00
  7.09195096e+00  7.10941235e+00  7.11582801e+00  7.14009880e+00
  7.14207998e+00  7.15138605e+00  7.15399476e+00  7.19254152e+00
  7.19495249e+00  7.22793864e+00  7.22963696e+00  7.24527539e+00
  7.24962423e+00  7.25137582e+00  7.27222056e+00  7.27631755e+00
  7.30825750e+00  7.31058663e+00  7.34528025e+00  7.34644944e+00
  7.35446055e+00  7.35655320e+00  7.35701702e+00  7.35771908e+00
  7.42380290e+00  7.42469158e+00  7.45657190e+00  7.46074896e+00
  7.47618988e+00  7.47844719e+00  7.50452909e+00  7.50695115e+00
  7.55896075e+00  7.56216495e+00  7.65394777e+00  7.65657968e+00
  7.69892171e+00  7.70167239e+00  7.77895687e+00  7.78147390e+00
  8.05306023e+00  8.05727001e+00  8.38452397e+00  8.38696034e+00
  8.41356105e+00  8.41659724e+00  8.45065697e+00  8.45482298e+00
  8.46664959e+00  8.49715645e+00  8.50868725e+00  8.53276665e+00
  8.54227530e+00  8.54782634e+00  8.61762163e+00  8.61896942e+00
  8.65278167e+00  8.66200158e+00  8.66843772e+00  8.67267223e+00
  8.76283442e+00  8.76509802e+00  8.79629685e+00  8.79860399e+00
  8.80400573e+00  8.81188020e+00  8.83925406e+00  8.84283888e+00
  8.87183697e+00  8.87447677e+00  8.87869495e+00  8.88223394e+00
  8.93122873e+00  8.93594175e+00  8.96810849e+00  8.97092552e+00
  9.01326652e+00  9.01865795e+00  9.02685725e+00  9.02966852e+00
  9.11848571e+00  9.12284036e+00  9.12422035e+00  9.12802261e+00
  9.15742052e+00  9.15899948e+00  9.16534836e+00  9.18224027e+00
  9.21130186e+00  9.22086987e+00  9.40507085e+00  9.41567224e+00
  1.57663599e+01  2.22342020e+01  2.23667167e+01  2.23987042e+01
  2.24610151e+01  2.26000466e+01  2.26111862e+01  2.26373593e+01
  2.26679188e+01  2.27797088e+01  2.28553919e+01  2.28848513e+01
  2.28927766e+01  2.29074063e+01  2.29140732e+01  2.29211045e+01
  2.30229870e+01  2.30316398e+01  2.30581003e+01  2.30880662e+01
  2.31629574e+01  2.32442925e+01  2.34828023e+01  2.35729416e+01
  2.36448859e+01  3.24758137e+01  3.30473673e+01  5.71341579e+01
  5.71466136e+01  5.73217124e+01  5.73278474e+01  5.74065577e+01
  5.74171813e+01  5.75525724e+01  5.75712171e+01  5.75850756e+01
  5.76279722e+01]
nelec by numeric integration = 261.99993852076545
    CPU time for vxc    174.11 sec, wall time     10.01 sec
    CPU time for df vj and vk    695.18 sec, wall time     44.15 sec
    CPU time for df vj and vk    497.83 sec, wall time     26.39 sec
E1 = -11347.056892746983  Ecoul = 5268.985014206753  Exc = -255.76021849713067
Extra cycle  E= -2052.99072351325  delta_E= -9.09e-13  |g|= 1.15e-05  |ddm|= 2.22e-05
    CPU time for scf_cycle   5066.31 sec, wall time    346.14 sec
    CPU time for SCF   5066.31 sec, wall time    346.14 sec
converged SCF energy = -2052.99072351325
SCF Done after 346.16 seconds
after SCF memory used: 28.89 GB
Converting <class 'pyscf.df.df_jk.density_fit.<locals>.DFHF'> to RHF
Converting <class 'pyscf.df.df_jk.density_fit.<locals>.DFHF'> to RHF
hdiag shape (140170,)
n_occ =  131
n_vir =  1070
max_vir =  252
A_size =  140170
A_reduced_size = 33012
a_x = 0.56
beta = 8.0
alpha = 4.58
Q-Gamma tensors building time = 0.78
after Q matrix memory used: 29.03 GB
TDDFT
|-------- In-house Developed TDDFT Starts ---------|
Residual conv = 1e-05

Number of excited states = 5
Initial guess:   sTDDFT
Preconditioner:  sTDDFT
A matrix size =  140170
setting initial guess
sTDDFT Convergence tol = 1.00e-03
sTDDFT diagonalization Converged
after  14 iterations; 17.5668 seconds
final subspace 76
max_norm =  8.68e-04
MVcost     5.1708s 29.43%
GScost     7.8342s 44.60%
subgencost 3.3430s 19.03%
subcost    0.1857s 1.06%
sTDDFT excitation energy:
[3.16899368 3.72518764 3.81812194 4.29245323 4.30073394 4.56595444
 4.60828002 4.72311749 4.99394369 5.35993065]
new_m = 10
initial guess done

iteration 0
beginning of step 0 memory used: 29.75 GB
    CPU time for df vj and vk   6934.10 sec, wall time    415.17 sec
    CPU time for df vj and vk   4922.82 sec, wall time    264.31 sec
subspace size: 10
Maximum residual norm:  1.56e-01
unconverged states [0, 1, 2, 3, 4]
sTDDFT_preconditioner conv 0.01
sTDDFT preconditioning Done
after 9 steps; 5.9048 s
final subspace 38
max_norm =  7.95e-03
initial_cost 0.1392s  2.36%
MVcost     3.1893s  54.01%
GScost     1.5377s  26.04%
subgencost 0.7612s  12.89%
subcost    0.0128s  0.22%
m & new_m 10 15

iteration 1
beginning of step 1 memory used: 29.81 GB
    CPU time for df vj and vk   3493.20 sec, wall time    213.64 sec
    CPU time for df vj and vk   2487.39 sec, wall time    132.87 sec
subspace size: 15
Maximum residual norm:  3.83e-02
unconverged states [0, 1, 2, 3, 4]
sTDDFT_preconditioner conv 0.01
sTDDFT preconditioning Done
after 11 steps; 7.0852 s
final subspace 42
max_norm =  7.58e-03
initial_cost 0.1341s  1.89%
MVcost     3.4867s  49.21%
GScost     1.8570s  26.21%
subgencost 1.2504s  17.65%
subcost    0.0253s  0.36%
m & new_m 15 20

iteration 2
beginning of step 2 memory used: 29.83 GB
    CPU time for df vj and vk   3474.11 sec, wall time    210.30 sec
    CPU time for df vj and vk   2465.19 sec, wall time    131.61 sec
subspace size: 20
Maximum residual norm:  1.70e-02
unconverged states [0, 1, 2, 3, 4]
sTDDFT_preconditioner conv 0.01
sTDDFT preconditioning Done
after 9 steps; 6.0966 s
final subspace 40
max_norm =  9.87e-03
initial_cost 0.1065s  1.75%
MVcost     3.1639s  51.90%
GScost     1.6576s  27.19%
subgencost 0.9129s  14.97%
subcost    0.0135s  0.22%
m & new_m 20 25

iteration 3
beginning of step 3 memory used: 29.87 GB
    CPU time for df vj and vk   3481.22 sec, wall time    212.00 sec
    CPU time for df vj and vk   2472.40 sec, wall time    131.77 sec
subspace size: 25
Maximum residual norm:  5.14e-03
unconverged states [0, 1, 2, 3, 4]
sTDDFT_preconditioner conv 0.01
sTDDFT preconditioning Done
after 14 steps; 7.6324 s
final subspace 41
max_norm =  8.87e-03
initial_cost 0.1011s  1.32%
MVcost     3.3262s  43.58%
GScost     1.9328s  25.32%
subgencost 1.8371s  24.07%
subcost    0.0306s  0.40%
m & new_m 25 30

iteration 4
beginning of step 4 memory used: 29.83 GB
    CPU time for df vj and vk   3474.65 sec, wall time    208.93 sec
    CPU time for df vj and vk   2477.74 sec, wall time    132.29 sec
subspace size: 30
Maximum residual norm:  1.54e-03
unconverged states [0, 1, 2, 3, 4]
sTDDFT_preconditioner conv 0.01
sTDDFT preconditioning Done
after 8 steps; 4.9838 s
final subspace 34
max_norm =  8.88e-03
initial_cost 0.0947s  1.90%
MVcost     2.7572s  55.32%
GScost     1.2036s  24.15%
subgencost 0.7142s  14.33%
subcost    0.0110s  0.22%
m & new_m 30 35

iteration 5
beginning of step 5 memory used: 29.91 GB
    CPU time for df vj and vk   3504.65 sec, wall time    213.79 sec
    CPU time for df vj and vk   2490.30 sec, wall time    133.01 sec
subspace size: 35
Maximum residual norm:  5.21e-04
unconverged states [0, 1, 2, 3, 4]
sTDDFT_preconditioner conv 0.01
sTDDFT preconditioning Done
after 13 steps; 6.9253 s
final subspace 43
max_norm =  6.50e-03
initial_cost 0.0740s  1.07%
MVcost     3.1476s  45.45%
GScost     1.9466s  28.11%
subgencost 1.3397s  19.35%
subcost    0.0280s  0.40%
m & new_m 35 40

iteration 6
beginning of step 6 memory used: 29.86 GB
    CPU time for df vj and vk   3502.70 sec, wall time    214.58 sec
    CPU time for df vj and vk   2487.84 sec, wall time    133.28 sec
subspace size: 40
Maximum residual norm:  1.52e-04
unconverged states [0, 1, 2, 3, 4]
sTDDFT_preconditioner conv 0.01
sTDDFT preconditioning Done
after 14 steps; 6.3639 s
final subspace 43
max_norm =  7.08e-03
initial_cost 0.0723s  1.14%
MVcost     2.4643s  38.72%
GScost     1.9154s  30.10%
subgencost 1.4826s  23.30%
subcost    0.0251s  0.39%
m & new_m 40 45

iteration 7
beginning of step 7 memory used: 29.95 GB
    CPU time for df vj and vk   3509.18 sec, wall time    214.08 sec
    CPU time for df vj and vk   2481.49 sec, wall time    132.85 sec
subspace size: 45
Maximum residual norm:  4.67e-05
unconverged states [0, 1, 2, 3, 4]
sTDDFT_preconditioner conv 0.01
sTDDFT preconditioning Done
after 10 steps; 6.1641 s
final subspace 35
max_norm =  9.68e-03
initial_cost 0.0803s  1.30%
MVcost     3.1208s  50.63%
GScost     1.6001s  25.96%
subgencost 1.0798s  17.52%
subcost    0.0177s  0.29%
m & new_m 45 50

iteration 8
beginning of step 8 memory used: 29.95 GB
    CPU time for df vj and vk   3509.55 sec, wall time    211.60 sec
    CPU time for df vj and vk   2481.85 sec, wall time    134.75 sec
subspace size: 50
Maximum residual norm:  1.42e-05
unconverged states [0, 2, 3, 4]
sTDDFT_preconditioner conv 0.01
sTDDFT preconditioning Done
after 7 steps; 2.9417 s
final subspace 25
max_norm =  8.08e-03
initial_cost 0.0566s  1.92%
MVcost     1.6925s  57.53%
GScost     0.6293s  21.39%
subgencost 0.4202s  14.28%
subcost    0.0064s  0.22%
m & new_m 50 54

iteration 9
beginning of step 9 memory used: 29.89 GB
    CPU time for df vj and vk   2803.91 sec, wall time    169.22 sec
    CPU time for df vj and vk   1992.70 sec, wall time    106.65 sec
subspace size: 54
Maximum residual norm:  4.48e-06
TDDFT precedure Done

============= TDDFT Calculation Done ==============
after 10 iterations 4313.55 s
Final subspace  54
preconditioning cost 54.4083 0.01 %
max_norm =  4.48e-06
Total TDDFT memory used: 29.94 GB
Excited State energies (eV) =
 [3.29791706 3.70611802 3.93871544 4.26461624 4.44259788]

Number of excited states = 5
Initial guess:   Adiag
Preconditioner:  Adiag
A matrix size =  140170
new_m = 10
initial guess done

iteration 0
beginning of step 0 memory used: 29.72 GB
    CPU time for df vj and vk   7014.53 sec, wall time    420.40 sec
    CPU time for df vj and vk   4955.68 sec, wall time    266.03 sec
subspace size: 10
Maximum residual norm:  1.56e-01
unconverged states [0, 1, 2, 3, 4]
m & new_m 10 15

iteration 1
beginning of step 1 memory used: 29.78 GB
    CPU time for df vj and vk   3447.47 sec, wall time    205.77 sec
    CPU time for df vj and vk   2444.74 sec, wall time    133.88 sec
subspace size: 15
Maximum residual norm:  5.66e-02
unconverged states [0, 1, 2, 3, 4]
m & new_m 15 20

iteration 2
beginning of step 2 memory used: 29.80 GB
    CPU time for df vj and vk   3491.46 sec, wall time    210.40 sec
    CPU time for df vj and vk   2488.37 sec, wall time    133.14 sec
subspace size: 20
Maximum residual norm:  3.55e-02
unconverged states [0, 1, 2, 3, 4]
m & new_m 20 25

iteration 3
beginning of step 3 memory used: 29.82 GB
    CPU time for df vj and vk   3500.34 sec, wall time    209.87 sec
    CPU time for df vj and vk   2493.17 sec, wall time    133.25 sec
subspace size: 25
Maximum residual norm:  4.61e-02
unconverged states [0, 1, 2, 3, 4]
m & new_m 25 30

iteration 4
beginning of step 4 memory used: 29.85 GB
    CPU time for df vj and vk   3505.35 sec, wall time    209.52 sec
    CPU time for df vj and vk   2490.07 sec, wall time    134.57 sec
subspace size: 30
Maximum residual norm:  4.44e-02
unconverged states [0, 1, 2, 3, 4]
m & new_m 30 35

iteration 5
beginning of step 5 memory used: 29.78 GB
    CPU time for df vj and vk   3517.39 sec, wall time    211.04 sec
    CPU time for df vj and vk   2499.30 sec, wall time    133.79 sec
subspace size: 35
Maximum residual norm:  2.62e-02
unconverged states [0, 1, 2, 3, 4]
m & new_m 35 40

iteration 6
beginning of step 6 memory used: 29.79 GB
    CPU time for df vj and vk   3501.76 sec, wall time    210.36 sec
    CPU time for df vj and vk   2482.59 sec, wall time    133.80 sec
subspace size: 40
Maximum residual norm:  1.20e-02
unconverged states [0, 1, 2, 3, 4]
m & new_m 40 45

iteration 7
beginning of step 7 memory used: 29.80 GB
    CPU time for df vj and vk   3511.73 sec, wall time    210.17 sec
    CPU time for df vj and vk   2501.71 sec, wall time    134.27 sec
subspace size: 45
Maximum residual norm:  6.03e-03
unconverged states [0, 1, 2, 3, 4]
m & new_m 45 50

iteration 8
beginning of step 8 memory used: 29.80 GB
    CPU time for df vj and vk   3504.38 sec, wall time    209.79 sec
    CPU time for df vj and vk   2491.66 sec, wall time    133.59 sec
subspace size: 50
Maximum residual norm:  3.07e-03
unconverged states [0, 1, 2, 3, 4]
m & new_m 50 55

iteration 9
beginning of step 9 memory used: 29.80 GB
    CPU time for df vj and vk   3522.50 sec, wall time    210.97 sec
    CPU time for df vj and vk   2509.98 sec, wall time    134.27 sec
subspace size: 55
Maximum residual norm:  2.06e-03
unconverged states [0, 1, 2, 3, 4]
m & new_m 55 60

iteration 10
beginning of step 10 memory used: 29.80 GB
    CPU time for df vj and vk   3511.45 sec, wall time    210.04 sec
    CPU time for df vj and vk   2492.39 sec, wall time    133.37 sec
subspace size: 60
Maximum residual norm:  1.57e-03
unconverged states [0, 1, 2, 3, 4]
m & new_m 60 65

iteration 11
beginning of step 11 memory used: 29.81 GB
    CPU time for df vj and vk   3507.41 sec, wall time    209.82 sec
    CPU time for df vj and vk   2486.87 sec, wall time    133.01 sec
subspace size: 65
Maximum residual norm:  9.02e-04
unconverged states [0, 1, 2, 3, 4]
m & new_m 65 70

iteration 12
beginning of step 12 memory used: 29.80 GB
    CPU time for df vj and vk   3530.14 sec, wall time    212.30 sec
    CPU time for df vj and vk   2481.55 sec, wall time    133.56 sec
subspace size: 70
Maximum residual norm:  4.42e-04
unconverged states [1, 2, 3, 4]
m & new_m 70 74

iteration 13
beginning of step 13 memory used: 29.80 GB
    CPU time for df vj and vk   2801.45 sec, wall time    169.44 sec
    CPU time for df vj and vk   1990.16 sec, wall time    108.10 sec
subspace size: 74
Maximum residual norm:  2.18e-04
unconverged states [1, 2, 3, 4]
m & new_m 74 78

iteration 14
beginning of step 14 memory used: 29.83 GB
    CPU time for df vj and vk   2814.19 sec, wall time    168.07 sec
    CPU time for df vj and vk   1995.36 sec, wall time    106.73 sec
subspace size: 78
Maximum residual norm:  1.26e-04
unconverged states [1, 3, 4]
m & new_m 78 81

iteration 15
beginning of step 15 memory used: 29.79 GB
    CPU time for df vj and vk   2102.05 sec, wall time    128.24 sec
    CPU time for df vj and vk   1494.30 sec, wall time     80.50 sec
subspace size: 81
Maximum residual norm:  5.08e-05
unconverged states [3, 4]
m & new_m 81 83

iteration 16
beginning of step 16 memory used: 29.78 GB
    CPU time for df vj and vk   1395.06 sec, wall time     85.64 sec
    CPU time for df vj and vk    998.64 sec, wall time     53.40 sec
subspace size: 83
Maximum residual norm:  2.40e-05
unconverged states [3, 4]
m & new_m 83 85

iteration 17
beginning of step 17 memory used: 29.77 GB
    CPU time for df vj and vk   1403.75 sec, wall time     85.55 sec
    CPU time for df vj and vk   1002.04 sec, wall time     53.49 sec
subspace size: 85
Maximum residual norm:  1.03e-05
unconverged states [4]
m & new_m 85 86

iteration 18
beginning of step 18 memory used: 29.77 GB
    CPU time for df vj and vk    702.44 sec, wall time     45.98 sec
    CPU time for df vj and vk    504.03 sec, wall time     26.82 sec
subspace size: 86
Maximum residual norm:  6.46e-06
TDDFT precedure Done

============= TDDFT Calculation Done ==============
after 19 iterations 6835.59 s
Final subspace  86
preconditioning cost 0.4208 0.00 %
max_norm =  6.46e-06
Total TDDFT memory used: 29.76 GB
Excited State energies (eV) =
 [3.29791706 3.70611802 3.93871544 4.26461624 4.44259788]
xyzfile = 46_Azobenzene_3a.xyz
checkfile = True
method = RKS
functional = wb97x
basis_set = def2-tzvp
density_fit = True
grid_level = 3
nstates = 5
pytd = False
TDA = False
TDDFT = True
dynpol = False
dynpol_omega = []
stapol = False
sTDA = False
sTDDFT = False
Truncate_test = False
truncate_virtual = 40.0
ip_options = [0, 1]
conv_tolerance = 1e-05
initial_TOL = 0.001
precond_TOL = 0.01
extrainitial = 8
max = 30
eigensolver_tol = 1e-05
memory = 50000
verbose = 5
beta = []
alpha = []
|-------- In-house Developed TDDFT Ends ----------|
