curpath /scratch/pbsjobs/job.15971937.hpc
lib.num_threads() =  16
at beginning memory used: 51.87109375 MB
mol.max_memory 50000


System: uname_result(system='Linux', node='compt161', release='3.10.0-1127.el7.x86_64', version='#1 SMP Tue Feb 18 16:39:12 EST 2020', machine='x86_64', processor='x86_64')  Threads 16
Python 3.7.0 (default, Aug 23 2018, 14:24:33) 
[GCC 6.3.0]
numpy 1.18.1  scipy 1.4.1
Date: Wed Jul  7 19:48:25 2021
PySCF version 1.7.4
PySCF path  /home/zzz6/.local/lib/python3.7/site-packages/pyscf

[CONFIG] conf_file None
[INPUT] verbose = 5
[INPUT] max_memory = 50000 
[INPUT] num. atoms = 72
[INPUT] num. electrons = 214
[INPUT] charge = 0
[INPUT] spin (= nelec alpha-beta = 2S) = 0
[INPUT] symmetry False subgroup None
[INPUT] Mole.unit = angstrom
[INPUT]  1 O     -6.405705841301  -0.863899275857  -1.990378724916 AA  -12.105029674586  -1.632533030579  -3.761270674251 Bohr
[INPUT]  2 C      1.184975544103   1.334287529103   0.171449795865 AA    2.239279242663   2.521438001428   0.323993158297 Bohr
[INPUT]  3 C      2.457577772460   0.455340119230   0.388469907936 AA    4.644148919767   0.860468118871   0.734101733634 Bohr
[INPUT]  4 C      0.189602260253   0.248397108052  -0.355147403893 AA    0.358296344477   0.469402504353  -0.671131327208 Bohr
[INPUT]  5 C      1.902750296618  -0.883745274074   0.960009900604 AA    3.595676944042  -1.670036531879   1.814155789013 Bohr
[INPUT]  6 C      0.401564370446  -0.958494334552   0.567278978069 AA    0.758846681526  -1.811291784251   1.072001904774 Bohr
[INPUT]  7 C      1.319237104378   2.460461171916  -0.897919275962 AA    2.492996820638   4.649597755048  -1.696821513535 Bohr
[INPUT]  8 C      3.606352735963   1.038409162329   1.240980614756 AA    6.815018979547   1.962308922040   2.345113487783 Bohr
[INPUT]  9 C     -1.193270310654   0.807329702743  -0.556089055453 AA   -2.254954079711   1.525632030411  -1.050856015673 Bohr
[INPUT] 10 C      0.679514112153   1.921377115569   1.505163242270 AA    1.284095569746   3.630876530432   2.844346300653 Bohr
[INPUT] 11 C      0.159766746857   2.463100861102  -1.921063870026 AA    0.301915395373   4.654586044664  -3.630284582146 Bohr
[INPUT] 12 C     -1.203681874532   2.145234441427  -1.286138977312 AA   -2.274629083969   4.053905567282  -2.430450425248 Bohr
[INPUT] 13 C      4.753095670752   0.014620331066   1.438857072484 AA    8.982049061576   0.027628421566   2.719045799387 Bohr
[INPUT] 14 C      4.148423210974   2.373747217553   0.703491988900 AA    7.839383717530   4.485732130124   1.329407189847 Bohr
[INPUT] 15 C     -2.315441540742   0.190831136456  -0.093992686368 AA   -4.375550369443   0.360618583941  -0.177620434947 Bohr
[INPUT] 16 C      5.435825194806  -0.480130511916   0.154746597263 AA   10.272220879195  -0.907315171569   0.292428687536 Bohr
[INPUT] 17 C      6.584071318451  -1.458356499830   0.446649257712 AA   12.442091576476  -2.755894376659   0.844044770816 Bohr
[INPUT] 18 C     -3.667421847553   0.682882347986  -0.267178247321 AA   -6.930422875121   1.290460612993  -0.504893713877 Bohr
[INPUT] 19 C      7.316359486155  -2.031441651457  -0.789606823494 AA   13.825915657697  -3.838868359288  -1.492140642491 Bohr
[INPUT] 20 C     -4.809131627418   0.137757043693   0.252862241732 AA   -9.087941672804   0.260323084309   0.477840384117 Bohr
[INPUT] 21 C     -6.177457799919   0.678101503745  -0.116077710834 AA  -11.673703387904   1.281426126733  -0.219355082642 Bohr
[INPUT] 22 C      8.025643195069  -0.940355165624  -1.609783453975 AA   15.166267612160  -1.777013722849  -3.042049847870 Bohr
[INPUT] 23 C      6.390562109591  -2.879781454260  -1.678304031199 AA   12.076412169151  -5.441998247154  -3.171534972719 Bohr
[INPUT] 24 C     -4.845587899896  -1.066007727133   1.125226113636 AA   -9.156834043310  -2.014462650952   2.126369182981 Bohr
[INPUT] 25 C     -7.010106357997  -0.447648458629  -0.764716122989 AA  -13.247181120687  -0.845932986893  -1.445104035489 Bohr
[INPUT] 26 C     -5.773867200845  -2.166630050921   0.635731975118 AA  -10.911027689206  -4.094337409493   1.201359321601 Bohr
[INPUT] 27 C     -7.153955398000  -1.623755269641   0.219426611832 AA  -13.519016409574  -3.068452752941   0.414656200804 Bohr
[INPUT] 28 C     -4.138998010490  -1.164996314238   2.270339377741 AA   -7.821572669947  -2.201523970037   4.290319633747 Bohr
[INPUT] 29 H      2.854521739587   0.256091800892  -0.626994634525 AA    5.394264304437   0.483943366433  -1.184848140825 Bohr
[INPUT] 30 H      0.579545492762  -0.033542108574  -1.356922428257 AA    1.095182258047  -0.063385398845  -2.564211761686 Bohr
[INPUT] 31 H      2.474148346821  -1.744332553711   0.572880577627 AA    4.675462767037  -3.296310796677   1.082587393797 Bohr
[INPUT] 32 H      2.016205368804  -0.903653561091   2.058889023624 AA    3.810075957917  -1.707657741951   3.890736375523 Bohr
[INPUT] 33 H      0.136154039120  -1.907897800060   0.073121481761 AA    0.257293844689  -3.605404315774   0.138179574350 Bohr
[INPUT] 34 H     -0.239487956901  -0.873652470114   1.461844321596 AA   -0.452566648675  -1.650963896566   2.762485404568 Bohr
[INPUT] 35 H      2.271261753523   2.353907724524  -1.446326964717 AA    4.292062671359   4.448240921849  -2.733161849888 Bohr
[INPUT] 36 H      1.361200875199   3.442576257715  -0.393045536374 AA    2.572296854644   6.505526290011  -0.742748418229 Bohr
[INPUT] 37 H      3.194235702786   1.230925070341   2.251549965424 AA    6.036230655574   2.326111262805   4.254812790425 Bohr
[INPUT] 38 H     -0.312899260848   2.387802504060   1.382427787261 AA   -0.591293907581   4.512292772225   2.612409904911 Bohr
[INPUT] 39 H      0.588429917387   1.150303958684   2.289696538558 AA    1.111971387362   2.173759441916   4.326899366239 Bohr
[INPUT] 40 H      1.371781860604   2.697397352976   1.875149923566 AA    2.592292019187   5.097342246251   3.543519798038 Bohr
[INPUT] 41 H      0.362289322987   1.716075789245  -2.710664320207 AA    0.684627598299   3.242913250669  -5.122413180822 Bohr
[INPUT] 42 H      0.117115719422   3.441685966803  -2.431073481958 AA    0.221316634588   6.503843884017  -4.594063069594 Bohr
[INPUT] 43 H     -1.473878352936   2.951170475977  -0.573457898202 AA   -2.785226427975   5.576903946499  -1.083678371570 Bohr
[INPUT] 44 H     -1.990602507752   2.156237233608  -2.062723270073 AA   -3.761693562523   4.074697831109  -3.897982051204 Bohr
[INPUT] 45 H      4.370107415303  -0.860210138063   1.996967678515 AA    8.258306149853  -1.625561570514   3.773721992002 Bohr
[INPUT] 46 H      5.517264123042   0.477793197053   2.093729064840 AA   10.426118149437   0.902898286611   3.956574511589 Bohr
[INPUT] 47 H      3.385379823746   3.168325978777   0.736799117990 AA    6.397440694508   5.987268373234   1.392348541821 Bohr
[INPUT] 48 H      5.009900017535   2.711291636414   1.307631290331 AA    9.467338944595   5.123598636646   2.471065010637 Bohr
[INPUT] 49 H      4.487735495522   2.284347995930  -0.343893709309 AA    8.480591006026   4.316792085508  -0.649864926556 Bohr
[INPUT] 50 H     -2.207482834688  -0.756427597167   0.445963784775 AA   -4.171537982239  -1.429440991708   0.842749414699 Bohr
[INPUT] 51 H      5.819716569576   0.383535088062  -0.419054938728 AA   10.997670439092   0.724776275598  -0.791899065342 Bohr
[INPUT] 52 H      4.687975982463  -0.973731829524  -0.493175373355 AA    8.858990685393  -1.840086476572  -0.931966387021 Bohr
[INPUT] 53 H      6.186655263950  -2.303744800412   1.042776832437 AA   11.691084075964  -4.353446733670   1.970562622348 Bohr
[INPUT] 54 H      7.327402476378  -0.952295761836   1.093964903853 AA   13.846783884814  -1.799578179454   2.067294058169 Bohr
[INPUT] 55 H     -3.795884987274   1.573781489595  -0.897117755986 AA   -7.173183026295   2.974015995245  -1.695306860299 Bohr
[INPUT] 56 H      8.101114593705  -2.707233159857  -0.395169332634 AA   15.308887885819  -5.115929227471  -0.746761811506 Bohr
[INPUT] 57 H     -6.086008046351   1.528783644318  -0.813415786613 AA  -11.500888399502   2.888982391475  -1.537133062095 Bohr
[INPUT] 58 H     -6.703779190983   1.032700284407   0.791834771869 AA  -12.668306670517   1.951520706290   1.496350854740 Bohr
[INPUT] 59 H      7.299415920089  -0.254145050585  -2.082488697027 AA   13.793896958258  -0.480264541520  -3.935333294884 Bohr
[INPUT] 60 H      8.632330096788  -1.386349399910  -2.418053944231 AA   16.312739699769  -2.619820678784  -4.569459709021 Bohr
[INPUT] 61 H      8.697906737262  -0.335129346458  -0.975138116164 AA   16.436661590434  -0.633302681110  -1.842743973175 Bohr
[INPUT] 62 H      5.610326740775  -2.260075367563  -2.156742087305 AA   10.601981009389  -4.270923465569  -4.075651866329 Bohr
[INPUT] 63 H      6.961497403706  -3.372092720593  -2.485715900452 AA   13.155323509875  -6.372331708561  -4.697322275330 Bohr
[INPUT] 64 H      5.883572330505  -3.667539992497  -1.092158837306 AA   11.118340338724  -6.930646136708  -2.063881087031 Bohr
[INPUT] 65 H     -8.012197442570  -0.066706570842  -1.032738738513 AA  -15.140858822398  -0.126057149600  -1.951593374018 Bohr
[INPUT] 66 H     -5.313996382126  -2.632490443489  -0.258698858696 AA  -10.041997789148  -4.974685963729  -0.488869991673 Bohr
[INPUT] 67 H     -5.872208053605  -2.956496165737   1.399722132207 AA  -11.096864967779  -5.586968041570   2.645091480364 Bohr
[INPUT] 68 H     -7.745732745746  -2.424815268084  -0.257051061600 AA  -14.637313523536  -4.582236759343  -0.485756106452 Bohr
[INPUT] 69 H     -7.711170184277  -1.280614857975   1.111938741708 AA  -14.571999748196  -2.420011352622   2.101259689121 Bohr
[INPUT] 70 H     -4.202444293628  -2.060683224496   2.900261291546 AA   -7.941468768698  -3.894126923783   5.480699530699 Bohr
[INPUT] 71 H     -3.490610313680  -0.351075552864   2.613079341087 AA   -6.596297500437  -0.663436643944   4.938004296413 Bohr
[INPUT] 72 H     -5.439403995661  -0.790632511717  -1.857794190521 AA  -10.278983832665  -1.494078912322  -3.510722215893 Bohr
[INPUT] ---------------- BASIS SET ---------------- 
[INPUT] l, kappa, [nprim/nctr], expnt,             c_1 c_2 ...
[INPUT] C
[INPUT] 0    0    [6    /1   ]  13575.349682      0.00022245814352
                                2035.233368       0.0017232738252
                                463.22562359      0.0089255715314
                                131.20019598      0.035727984502
                                42.853015891      0.11076259931
                                15.584185766      0.24295627626
[INPUT] 0    0    [2    /1   ]  6.2067138508      0.41440263448
                                2.5764896527      0.23744968655
[INPUT] 0    0    [1    /1   ]  0.57696339419        1
[INPUT] 0    0    [1    /1   ]  0.22972831358        1
[INPUT] 0    0    [1    /1   ]  0.095164440028       1
[INPUT] 1    0    [4    /1   ]  34.697232244      0.0053333657805
                                7.9582622826      0.035864109092
                                2.3780826883      0.14215873329
                                0.81433208183     0.34270471845
[INPUT] 1    0    [1    /1   ]  0.28887547253        1
[INPUT] 1    0    [1    /1   ]  0.10056823671        1
[INPUT] 2    0    [1    /1   ]  1.097                1
[INPUT] 2    0    [1    /1   ]  0.318                1
[INPUT] 3    0    [1    /1   ]  0.761                1
[INPUT] O
[INPUT] 0    0    [6    /1   ]  27032.382631      0.00021726302465
                                4052.3871392      0.0016838662199
                                922.3272271       0.0087395616265
                                261.24070989      0.035239968808
                                85.354641351      0.11153519115
                                31.035035245      0.25588953961
[INPUT] 0    0    [2    /1   ]  12.260860728      0.39768730901
                                4.9987076005      0.2462784943
[INPUT] 0    0    [1    /1   ]  1.1703108158         1
[INPUT] 0    0    [1    /1   ]  0.46474740994        1
[INPUT] 0    0    [1    /1   ]  0.18504536357        1
[INPUT] 1    0    [4    /1   ]  63.274954801      0.0060685103418
                                14.627049379      0.041912575824
                                4.4501223456      0.16153841088
                                1.5275799647      0.35706951311
[INPUT] 1    0    [1    /1   ]  0.52935117943        1
[INPUT] 1    0    [1    /1   ]  0.1747842127         1
[INPUT] 2    0    [1    /1   ]  2.314                1
[INPUT] 2    0    [1    /1   ]  0.645                1
[INPUT] 3    0    [1    /1   ]  1.428                1
[INPUT] H
[INPUT] 0    0    [3    /1   ]  34.061341         0.0060251978
                                5.1235746         0.045021094
                                1.1646626         0.20189726
[INPUT] 0    0    [1    /1   ]  0.32723041           1
[INPUT] 0    0    [1    /1   ]  0.10307241           1
[INPUT] 1    0    [1    /1   ]  0.8                  1

nuclear repulsion = 2664.97345107819
number of shells = 484
number of NR pGTOs = 1640
number of NR cGTOs = 1132
basis = def2-tzvp
ecp = {}
CPU time:         3.42
RKS
Density fitting turned on
Molecule built
Calculating SCF Energy...


******** <class 'pyscf.df.df_jk.density_fit.<locals>.DFHF'> ********
method = DFHF-RKS-RHF
initial guess = chkfile
damping factor = 0
level_shift factor = 0
DIIS = <class 'pyscf.scf.diis.CDIIS'>
diis_start_cycle = 1
diis_space = 8
SCF conv_tol = 1e-10
SCF conv_tol_grad = None
SCF max_cycles = 50
direct_scf = True
direct_scf_tol = 1e-13
chkfile to save SCF result = 72_Vitamin_D3_pbe0.chk
max_memory 50000 MB (current use 56 MB)
XC functionals = pbe0
small_rho_cutoff = 1e-07
radial grids: 
    Treutler-Ahlrichs [JCP 102, 346 (1995); DOI:10.1063/1.469408] (M4) radial grids
    
becke partition: Becke, JCP 88, 2547 (1988); DOI:10.1063/1.454033
pruning grids: <function nwchem_prune at 0x7fbe6d703048>
grids dens level: 3
symmetrized grids: False
atomic radii adjust function: <function treutler_atomic_radii_adjust at 0x7fbe6d6eff28>
Set gradient conv threshold to 1e-05
atom O rad-grids = 75, ang-grids = [ 50  50  50  50  50  50  50  50  50  50  50  50  50  50  50  50  50  50
  50  50  50  50  86  86  86  86  86  86  86  86  86 266 266 266 266 266
 266 266 302 302 302 302 302 302 302 302 302 302 302 302 302 302 302 302
 302 302 302 266 266 266 266 266 266 266 266 266 266 266 266 266 266 266
 266 266 266]
atom C rad-grids = 75, ang-grids = [ 50  50  50  50  50  50  50  50  50  50  50  50  50  50  50  50  50  50
  50  50  50  50  50  86  86  86  86  86  86  86  86  86  86 266 266 266
 266 266 266 266 302 302 302 302 302 302 302 302 302 302 302 302 302 302
 302 302 302 302 302 302 266 266 266 266 266 266 266 266 266 266 266 266
 266 266 266]
atom H rad-grids = 50, ang-grids = [ 50  50  50  50  50  50  50  50  50  50  50  50  50  50  86  86  86  86
 266 266 266 266 302 302 302 302 302 302 302 302 302 302 302 302 302 266
 266 266 266 266 266 266 266 266 266 266 266 266 266 266]
tot grids = 830672
Drop grids 170828
    CPU time for setting up grids    229.39 sec, wall time     16.44 sec
nelec by numeric integration = 213.99970535966298
    CPU time for vxc    335.41 sec, wall time     22.42 sec
******** <class 'pyscf.df.df.DF'> ********
auxbasis = None
max_memory = 50000
_cderi_to_save = /tmp/job.15971937.hpc/tmpqysq557q
Default auxbasis def2-tzvp-jkfit is used for C def2-tzvp
Default auxbasis def2-tzvp-jkfit is used for O def2-tzvp
Default auxbasis def2-tzvp-jkfit is used for H def2-tzvp
num shells = 964, num cGTOs = 2894
size of aux basis 2894
int3c2e [1/2], AO [0:387], nrow = 485605
int3c2e [2/2], AO [387:484], nrow = 155673
    CPU time for cholesky_eri    532.52 sec, wall time     78.17 sec
    CPU time for df vj and vk   1660.05 sec, wall time    164.90 sec
E1 = -6827.411590872061  Ecoul = 3203.1382258971657  Exc = -170.29532830916247
init E= -1129.59524220587
cond(S) = 941736.5113171733
    CPU time for initialize scf   2244.59 sec, wall time    210.32 sec
  HOMO = -0.215502344871032  LUMO = -0.0365269437536182
  mo_energy =
[-1.91968464e+01 -1.02730631e+01 -1.02404575e+01 -1.02396281e+01
 -1.02359238e+01 -1.02345944e+01 -1.02302717e+01 -1.02280100e+01
 -1.02272863e+01 -1.02272862e+01 -1.02269264e+01 -1.02263148e+01
 -1.02260931e+01 -1.02232232e+01 -1.02232214e+01 -1.02208255e+01
 -1.02191001e+01 -1.02175008e+01 -1.02173590e+01 -1.02169371e+01
 -1.02157764e+01 -1.02155595e+01 -1.02151921e+01 -1.02146076e+01
 -1.02098990e+01 -1.02097602e+01 -1.02096814e+01 -1.02096053e+01
 -1.04186990e+00 -8.91466046e-01 -8.69200301e-01 -8.44611698e-01
 -8.31199903e-01 -8.10897638e-01 -8.05788807e-01 -7.84423364e-01
 -7.82187451e-01 -7.59587243e-01 -7.52097542e-01 -7.29809610e-01
 -7.09895658e-01 -6.98759182e-01 -6.94720736e-01 -6.89280501e-01
 -6.84713630e-01 -6.58246093e-01 -6.36780328e-01 -6.12693490e-01
 -6.10786680e-01 -6.01054283e-01 -5.95331180e-01 -5.76192090e-01
 -5.59982980e-01 -5.39315886e-01 -5.25279096e-01 -5.14031468e-01
 -5.06994485e-01 -4.97506675e-01 -4.93541452e-01 -4.84389909e-01
 -4.78962219e-01 -4.73403049e-01 -4.70817733e-01 -4.60357654e-01
 -4.58153112e-01 -4.56575891e-01 -4.53362076e-01 -4.47291367e-01
 -4.41356963e-01 -4.31972776e-01 -4.28201173e-01 -4.23555322e-01
 -4.22176212e-01 -4.17470359e-01 -4.09712020e-01 -4.07984307e-01
 -4.05263870e-01 -4.00076593e-01 -3.91846498e-01 -3.88850650e-01
 -3.84985350e-01 -3.82728551e-01 -3.79221183e-01 -3.71981186e-01
 -3.69616442e-01 -3.64176710e-01 -3.62053412e-01 -3.58422977e-01
 -3.55548875e-01 -3.53294612e-01 -3.44902160e-01 -3.40760030e-01
 -3.37639655e-01 -3.33089698e-01 -3.30157813e-01 -3.28015777e-01
 -3.25176102e-01 -3.24502081e-01 -3.16233914e-01 -3.15402904e-01
 -3.11802223e-01 -3.08180317e-01 -3.04595579e-01 -2.93926913e-01
 -2.80644322e-01 -2.67966293e-01 -2.15502345e-01 -3.65269438e-02
  9.00966779e-03  2.57685552e-02  3.89319679e-02  4.20193482e-02
  4.58512948e-02  4.93610047e-02  5.49594889e-02  6.11507469e-02
  6.60721217e-02  6.80398633e-02  7.30618674e-02  7.58265853e-02
  8.12033155e-02  8.42134491e-02  8.55685884e-02  9.23083045e-02
  9.40110648e-02  9.71304244e-02  9.79611077e-02  1.04091404e-01
  1.04700815e-01  1.07095715e-01  1.09493429e-01  1.10552357e-01
  1.15012133e-01  1.16993953e-01  1.19931399e-01  1.23595953e-01
  1.24964618e-01  1.30873160e-01  1.33519055e-01  1.35200713e-01
  1.37336534e-01  1.39918871e-01  1.43735159e-01  1.44628877e-01
  1.47013396e-01  1.48662384e-01  1.56177117e-01  1.59048652e-01
  1.61674199e-01  1.63231617e-01  1.65962619e-01  1.67763484e-01
  1.69777087e-01  1.73204934e-01  1.75304050e-01  1.78549177e-01
  1.82914462e-01  1.87505556e-01  1.90639664e-01  1.91639286e-01
  1.96825479e-01  2.00041959e-01  2.03027148e-01  2.04174840e-01
  2.09157370e-01  2.11603950e-01  2.12389675e-01  2.15904811e-01
  2.20151908e-01  2.25231561e-01  2.27913274e-01  2.28823115e-01
  2.31455842e-01  2.32100637e-01  2.35829559e-01  2.37891507e-01
  2.42019233e-01  2.44298551e-01  2.51418068e-01  2.53379277e-01
  2.57906811e-01  2.59109711e-01  2.61973546e-01  2.67191986e-01
  2.70230924e-01  2.72879323e-01  2.77079936e-01  2.81943730e-01
  2.82723574e-01  2.87905537e-01  2.91707412e-01  2.96054666e-01
  2.97731377e-01  2.99911189e-01  3.04465282e-01  3.05554019e-01
  3.10790681e-01  3.15684090e-01  3.16811618e-01  3.21806368e-01
  3.26415255e-01  3.30130037e-01  3.33782329e-01  3.34453570e-01
  3.37690306e-01  3.41144898e-01  3.44821527e-01  3.51256220e-01
  3.56716291e-01  3.58856379e-01  3.63629631e-01  3.65891969e-01
  3.69313009e-01  3.70827878e-01  3.81025800e-01  3.84963119e-01
  3.86594265e-01  3.89195509e-01  3.91562712e-01  3.95461552e-01
  3.99668310e-01  4.02577167e-01  4.03897569e-01  4.06968549e-01
  4.10750632e-01  4.13256144e-01  4.17031525e-01  4.18452230e-01
  4.21194754e-01  4.24318167e-01  4.26507082e-01  4.27785358e-01
  4.30585327e-01  4.31436147e-01  4.32946924e-01  4.35869053e-01
  4.36692488e-01  4.39932684e-01  4.41221841e-01  4.45013325e-01
  4.46953301e-01  4.49313456e-01  4.50656686e-01  4.51870104e-01
  4.55443510e-01  4.57219018e-01  4.57574284e-01  4.58865662e-01
  4.60148644e-01  4.62106563e-01  4.64749272e-01  4.69127950e-01
  4.70594618e-01  4.73061905e-01  4.75322558e-01  4.77717852e-01
  4.78914962e-01  4.81311736e-01  4.83673157e-01  4.85698772e-01
  4.87139825e-01  4.89488150e-01  4.91042377e-01  4.93732451e-01
  4.96606127e-01  4.97427981e-01  5.01294216e-01  5.03951287e-01
  5.05998235e-01  5.06656364e-01  5.12362443e-01  5.12895556e-01
  5.15816802e-01  5.21052431e-01  5.23298104e-01  5.26485740e-01
  5.29712043e-01  5.30693850e-01  5.36553538e-01  5.37789534e-01
  5.39169457e-01  5.43988848e-01  5.45241614e-01  5.52726180e-01
  5.54552072e-01  5.59703833e-01  5.61755508e-01  5.68262617e-01
  5.72352543e-01  5.73748053e-01  5.78855839e-01  5.85924239e-01
  5.88804608e-01  5.90524952e-01  5.94495712e-01  5.97086728e-01
  6.01011160e-01  6.05989339e-01  6.08179583e-01  6.13842440e-01
  6.14923325e-01  6.20973387e-01  6.23207341e-01  6.33545485e-01
  6.37721415e-01  6.42801158e-01  6.47967751e-01  6.57489254e-01
  6.59269646e-01  6.64264442e-01  6.66534385e-01  6.73805911e-01
  6.80650519e-01  6.82874327e-01  6.93226481e-01  6.95786162e-01
  6.98524620e-01  7.02561239e-01  7.05636133e-01  7.13473399e-01
  7.22865933e-01  7.24150947e-01  7.27961677e-01  7.32925504e-01
  7.40998740e-01  7.44273402e-01  7.52011595e-01  7.55576998e-01
  7.59087496e-01  7.64757904e-01  7.69720053e-01  7.77501687e-01
  7.83821519e-01  7.88794668e-01  7.93347170e-01  7.98634423e-01
  8.04271249e-01  8.07434606e-01  8.15934883e-01  8.21035254e-01
  8.27142123e-01  8.28696863e-01  8.36888629e-01  8.39177147e-01
  8.47623434e-01  8.50111472e-01  8.52908999e-01  8.54821165e-01
  8.65268319e-01  8.70717020e-01  8.74762482e-01  8.79352957e-01
  8.83258077e-01  8.85953036e-01  8.92599019e-01  8.96219596e-01
  8.97302338e-01  9.01374141e-01  9.07502002e-01  9.13785641e-01
  9.18375303e-01  9.21404889e-01  9.27655223e-01  9.32753085e-01
  9.37571975e-01  9.47286565e-01  9.54833262e-01  9.64159273e-01
  9.67054154e-01  9.69712519e-01  9.73193767e-01  9.79646920e-01
  9.81989998e-01  9.88330852e-01  9.91595468e-01  9.95500778e-01
  1.00035561e+00  1.00662032e+00  1.01102124e+00  1.01259358e+00
  1.01717801e+00  1.02536214e+00  1.03438746e+00  1.03903900e+00
  1.04300888e+00  1.05008839e+00  1.05120131e+00  1.05790330e+00
  1.06137866e+00  1.06975587e+00  1.07591839e+00  1.07841472e+00
  1.08581701e+00  1.09053786e+00  1.09533815e+00  1.10009736e+00
  1.10525862e+00  1.10811357e+00  1.11337600e+00  1.11716983e+00
  1.12817809e+00  1.13054764e+00  1.13700817e+00  1.13965940e+00
  1.14626875e+00  1.15198594e+00  1.15589254e+00  1.15943928e+00
  1.16388568e+00  1.17033672e+00  1.17275955e+00  1.17906271e+00
  1.18342829e+00  1.18916570e+00  1.19501112e+00  1.19905432e+00
  1.20202870e+00  1.20798700e+00  1.21359104e+00  1.21690340e+00
  1.22613428e+00  1.22896732e+00  1.23318070e+00  1.23468607e+00
  1.23798061e+00  1.24408816e+00  1.24907102e+00  1.25258529e+00
  1.25616417e+00  1.26030679e+00  1.26571248e+00  1.26961912e+00
  1.27889279e+00  1.28157885e+00  1.28608213e+00  1.29339679e+00
  1.29587162e+00  1.30088145e+00  1.30947979e+00  1.31370225e+00
  1.31981110e+00  1.32398639e+00  1.32984688e+00  1.33490344e+00
  1.33895289e+00  1.34251934e+00  1.34984166e+00  1.35528150e+00
  1.36072085e+00  1.36250139e+00  1.36610044e+00  1.37447121e+00
  1.38822306e+00  1.39890609e+00  1.40363242e+00  1.40630292e+00
  1.41006822e+00  1.41606483e+00  1.42222548e+00  1.42931077e+00
  1.43098112e+00  1.43626702e+00  1.45123881e+00  1.45605897e+00
  1.47092673e+00  1.47353458e+00  1.47547579e+00  1.48799716e+00
  1.49749671e+00  1.50093728e+00  1.51160332e+00  1.51356723e+00
  1.52615146e+00  1.53531453e+00  1.54592508e+00  1.54749732e+00
  1.55025451e+00  1.55634940e+00  1.56056938e+00  1.56260553e+00
  1.56642701e+00  1.56940792e+00  1.57546898e+00  1.58232273e+00
  1.58399188e+00  1.59186791e+00  1.59712508e+00  1.59904379e+00
  1.60383658e+00  1.60639003e+00  1.60862318e+00  1.61072064e+00
  1.61822131e+00  1.62050691e+00  1.62612569e+00  1.63078020e+00
  1.63154041e+00  1.63543768e+00  1.63913927e+00  1.64092420e+00
  1.64259065e+00  1.65029632e+00  1.65270635e+00  1.65969104e+00
  1.66470593e+00  1.66646605e+00  1.66897333e+00  1.67495029e+00
  1.67864126e+00  1.68164277e+00  1.68195898e+00  1.68880378e+00
  1.69241693e+00  1.69767357e+00  1.70442713e+00  1.70852886e+00
  1.71454493e+00  1.71739759e+00  1.71969281e+00  1.72632258e+00
  1.73211858e+00  1.74338153e+00  1.74866407e+00  1.75128049e+00
  1.75532959e+00  1.76072456e+00  1.76358085e+00  1.76978871e+00
  1.77508438e+00  1.77994734e+00  1.78522067e+00  1.78950482e+00
  1.79543632e+00  1.80503249e+00  1.81173632e+00  1.81562532e+00
  1.82510010e+00  1.82922468e+00  1.83272083e+00  1.83616887e+00
  1.84170683e+00  1.84266344e+00  1.84725979e+00  1.85620167e+00
  1.86222954e+00  1.87061470e+00  1.87264021e+00  1.88356964e+00
  1.88995670e+00  1.89548401e+00  1.89756201e+00  1.90411435e+00
  1.90775110e+00  1.90963522e+00  1.91552063e+00  1.92014971e+00
  1.92551005e+00  1.93011042e+00  1.94124370e+00  1.94633418e+00
  1.95340194e+00  1.96130416e+00  1.96534489e+00  1.96765440e+00
  1.96993984e+00  1.97709834e+00  1.98953540e+00  1.99228154e+00
  1.99469068e+00  2.00042668e+00  2.00629560e+00  2.01521516e+00
  2.02210129e+00  2.02851758e+00  2.03045592e+00  2.03483376e+00
  2.04044283e+00  2.04982866e+00  2.05414039e+00  2.05901975e+00
  2.06298813e+00  2.07020078e+00  2.07623346e+00  2.07912636e+00
  2.08834552e+00  2.09472964e+00  2.09679681e+00  2.10236403e+00
  2.10939402e+00  2.11425791e+00  2.11872061e+00  2.12824394e+00
  2.13399632e+00  2.14211502e+00  2.14825781e+00  2.15314997e+00
  2.15590055e+00  2.16283868e+00  2.16432374e+00  2.16854475e+00
  2.18469357e+00  2.19314459e+00  2.19773227e+00  2.20242582e+00
  2.20543166e+00  2.21020666e+00  2.21531233e+00  2.22314925e+00
  2.22433673e+00  2.22863257e+00  2.24004884e+00  2.24827349e+00
  2.25322463e+00  2.26186861e+00  2.26785660e+00  2.27342188e+00
  2.28570637e+00  2.28952879e+00  2.29596014e+00  2.29939464e+00
  2.30449441e+00  2.30833157e+00  2.31027915e+00  2.31975002e+00
  2.32938474e+00  2.33558693e+00  2.34256480e+00  2.34788870e+00
  2.35159996e+00  2.35860700e+00  2.35893121e+00  2.37042299e+00
  2.37372595e+00  2.38155814e+00  2.38767972e+00  2.38891229e+00
  2.39215141e+00  2.40078581e+00  2.40650279e+00  2.41722859e+00
  2.42088539e+00  2.42393267e+00  2.42924761e+00  2.43027285e+00
  2.43465146e+00  2.44119048e+00  2.44733125e+00  2.45174658e+00
  2.45626635e+00  2.46277945e+00  2.46800498e+00  2.47370039e+00
  2.47506577e+00  2.48274824e+00  2.48951479e+00  2.49189695e+00
  2.49826257e+00  2.50665038e+00  2.51195918e+00  2.51614740e+00
  2.52023497e+00  2.52380416e+00  2.52742491e+00  2.53060271e+00
  2.53497995e+00  2.53644259e+00  2.54502303e+00  2.55135193e+00
  2.55389488e+00  2.56121811e+00  2.56327092e+00  2.56579779e+00
  2.56913922e+00  2.57044097e+00  2.57282685e+00  2.57564089e+00
  2.58236625e+00  2.58453244e+00  2.58756066e+00  2.59211194e+00
  2.59391551e+00  2.59835436e+00  2.60742369e+00  2.61064409e+00
  2.61398251e+00  2.62035346e+00  2.62247834e+00  2.62610670e+00
  2.63076643e+00  2.63857533e+00  2.63958656e+00  2.64151033e+00
  2.64710924e+00  2.64843303e+00  2.65469910e+00  2.65942041e+00
  2.66243182e+00  2.66350107e+00  2.66771829e+00  2.67202886e+00
  2.67655849e+00  2.67781529e+00  2.68126262e+00  2.69212788e+00
  2.69433807e+00  2.69690046e+00  2.70142482e+00  2.70453552e+00
  2.71285797e+00  2.71402187e+00  2.71665548e+00  2.72280688e+00
  2.72446556e+00  2.73445176e+00  2.73671575e+00  2.74476747e+00
  2.74723274e+00  2.75055837e+00  2.75130610e+00  2.75500309e+00
  2.75814244e+00  2.76202186e+00  2.76472443e+00  2.77704008e+00
  2.77772711e+00  2.78575245e+00  2.78990032e+00  2.79295365e+00
  2.79587381e+00  2.79678558e+00  2.80345688e+00  2.80541630e+00
  2.81359407e+00  2.81594989e+00  2.81933964e+00  2.82819367e+00
  2.83025980e+00  2.83923280e+00  2.84794036e+00  2.85224295e+00
  2.85452607e+00  2.85780165e+00  2.87058904e+00  2.87498508e+00
  2.87906080e+00  2.88672002e+00  2.89086052e+00  2.89695811e+00
  2.90023030e+00  2.90679954e+00  2.91300903e+00  2.91691865e+00
  2.92081947e+00  2.92915870e+00  2.93383694e+00  2.94000932e+00
  2.94483194e+00  2.94686138e+00  2.94984228e+00  2.95939124e+00
  2.96828081e+00  2.97749706e+00  2.98480947e+00  2.98833869e+00
  2.99050004e+00  2.99222864e+00  2.99896234e+00  3.01293605e+00
  3.02001732e+00  3.02186179e+00  3.03008904e+00  3.03417103e+00
  3.03820323e+00  3.04996537e+00  3.05336183e+00  3.05596927e+00
  3.05811505e+00  3.06633401e+00  3.07364978e+00  3.07894069e+00
  3.09167904e+00  3.09983933e+00  3.10116077e+00  3.10687580e+00
  3.11368104e+00  3.11837100e+00  3.12259693e+00  3.12381183e+00
  3.13213364e+00  3.13751785e+00  3.14173642e+00  3.14832802e+00
  3.15244333e+00  3.15642666e+00  3.16574375e+00  3.17080760e+00
  3.17217956e+00  3.17604541e+00  3.17789248e+00  3.18304189e+00
  3.18430408e+00  3.19447696e+00  3.20038585e+00  3.20410995e+00
  3.21134058e+00  3.21362150e+00  3.21411122e+00  3.22442272e+00
  3.22548683e+00  3.23274172e+00  3.23362016e+00  3.23943860e+00
  3.24674606e+00  3.25084796e+00  3.25361022e+00  3.26255036e+00
  3.26608958e+00  3.26761901e+00  3.27648147e+00  3.28011301e+00
  3.28341331e+00  3.28699770e+00  3.29051831e+00  3.29320531e+00
  3.29519845e+00  3.29792971e+00  3.30086342e+00  3.30581240e+00
  3.31151151e+00  3.31397396e+00  3.31703864e+00  3.32407934e+00
  3.32590693e+00  3.33128556e+00  3.33730592e+00  3.34075490e+00
  3.34224273e+00  3.35515451e+00  3.35649931e+00  3.36102188e+00
  3.36419928e+00  3.37029548e+00  3.37510901e+00  3.37585353e+00
  3.38365348e+00  3.38584155e+00  3.39224376e+00  3.39528959e+00
  3.39617442e+00  3.40051075e+00  3.40833695e+00  3.41104009e+00
  3.41743225e+00  3.41983138e+00  3.42281260e+00  3.42397077e+00
  3.43118467e+00  3.43991900e+00  3.44339512e+00  3.44619150e+00
  3.44950323e+00  3.45285861e+00  3.45532625e+00  3.46233368e+00
  3.46455763e+00  3.47109442e+00  3.47526108e+00  3.47750056e+00
  3.47955561e+00  3.48880374e+00  3.49377563e+00  3.49774374e+00
  3.50214252e+00  3.50341255e+00  3.51547311e+00  3.51893340e+00
  3.51942390e+00  3.52577197e+00  3.52895683e+00  3.53642449e+00
  3.54098366e+00  3.54435339e+00  3.54919346e+00  3.55184327e+00
  3.55876501e+00  3.56542627e+00  3.56773216e+00  3.57189683e+00
  3.57602341e+00  3.57843593e+00  3.58595336e+00  3.58798678e+00
  3.59826832e+00  3.60405115e+00  3.61025600e+00  3.61763166e+00
  3.61938740e+00  3.62033184e+00  3.62720693e+00  3.62811516e+00
  3.63744256e+00  3.64645771e+00  3.65101523e+00  3.65464907e+00
  3.66091973e+00  3.66478380e+00  3.66985761e+00  3.67471558e+00
  3.67683218e+00  3.68662322e+00  3.69257927e+00  3.69943202e+00
  3.70142308e+00  3.70974099e+00  3.71356755e+00  3.71565294e+00
  3.72809342e+00  3.73305012e+00  3.73835158e+00  3.74250315e+00
  3.75555085e+00  3.75923130e+00  3.76410759e+00  3.77372274e+00
  3.77476106e+00  3.78214631e+00  3.78964018e+00  3.79411376e+00
  3.80527989e+00  3.80678349e+00  3.80907463e+00  3.81776258e+00
  3.82827396e+00  3.83133974e+00  3.83933603e+00  3.85549932e+00
  3.86806753e+00  3.87008381e+00  3.88505949e+00  3.88970800e+00
  3.90492121e+00  3.90723624e+00  3.91911067e+00  3.92276743e+00
  3.93609024e+00  3.94384354e+00  3.94975533e+00  3.95353206e+00
  3.96739218e+00  3.97219295e+00  3.97838312e+00  3.98131762e+00
  3.98204045e+00  3.98313370e+00  4.00140111e+00  4.00637652e+00
  4.01059761e+00  4.01995597e+00  4.02786256e+00  4.03114852e+00
  4.03272883e+00  4.03517776e+00  4.04419345e+00  4.05212759e+00
  4.05822559e+00  4.06209050e+00  4.06603558e+00  4.07394464e+00
  4.07897313e+00  4.08003360e+00  4.09170771e+00  4.09753878e+00
  4.10219724e+00  4.10740451e+00  4.11177223e+00  4.11621668e+00
  4.12835556e+00  4.13778526e+00  4.14011954e+00  4.14385712e+00
  4.15887816e+00  4.16375822e+00  4.17117145e+00  4.18021373e+00
  4.18363953e+00  4.19076133e+00  4.20227793e+00  4.21373115e+00
  4.21581664e+00  4.22608440e+00  4.22817658e+00  4.23469427e+00
  4.23647263e+00  4.24895578e+00  4.26195564e+00  4.27156764e+00
  4.27417116e+00  4.28571969e+00  4.28704020e+00  4.30784127e+00
  4.31943601e+00  4.33038558e+00  4.34006544e+00  4.34590820e+00
  4.34860782e+00  4.36799882e+00  4.37482165e+00  4.38619240e+00
  4.39077610e+00  4.39524706e+00  4.39763512e+00  4.40603893e+00
  4.41394571e+00  4.41819364e+00  4.43040306e+00  4.44589689e+00
  4.45142581e+00  4.45473852e+00  4.46283877e+00  4.47941263e+00
  4.48522907e+00  4.49157336e+00  4.50297143e+00  4.50393831e+00
  4.51155156e+00  4.52002795e+00  4.52641202e+00  4.53171605e+00
  4.53793102e+00  4.54112854e+00  4.54754812e+00  4.55453572e+00
  4.56249023e+00  4.57745363e+00  4.58381611e+00  4.60004219e+00
  4.60433174e+00  4.61031853e+00  4.61807278e+00  4.62767985e+00
  4.64971860e+00  4.65529347e+00  4.66503049e+00  4.67841626e+00
  4.68497711e+00  4.70071694e+00  4.71525499e+00  4.72274304e+00
  4.73188773e+00  4.74368181e+00  4.75760059e+00  4.76770672e+00
  4.78568074e+00  4.80021552e+00  4.80454769e+00  4.81923038e+00
  4.82475833e+00  4.83556147e+00  4.84305267e+00  4.85914055e+00
  4.87237895e+00  4.87779656e+00  4.88284259e+00  4.90465895e+00
  4.91860322e+00  4.92658774e+00  4.94553509e+00  4.95319452e+00
  4.97486884e+00  4.98285373e+00  5.01080136e+00  5.02130226e+00
  5.03151726e+00  5.03820205e+00  5.05262612e+00  5.08247759e+00
  5.09949016e+00  5.13021322e+00  5.15112675e+00  5.15846495e+00
  5.19412365e+00  5.21257730e+00  5.23047452e+00  5.25888343e+00
  5.28879156e+00  5.30166790e+00  5.31730465e+00  5.35247005e+00
  5.38394922e+00  5.40716509e+00  5.42520662e+00  5.51962509e+00
  5.53166205e+00  5.59541587e+00  5.62483610e+00  5.75394112e+00
  5.82159614e+00  5.96248420e+00  6.27961500e+00  6.54041503e+00
  6.79993325e+00  6.87697160e+00  7.02850869e+00  7.19975844e+00
  2.23645453e+01  2.23882446e+01  2.24145419e+01  2.24764405e+01
  2.25216260e+01  2.25305712e+01  2.25364243e+01  2.25728147e+01
  2.25848483e+01  2.25901022e+01  2.25972117e+01  2.26027993e+01
  2.26078481e+01  2.26295450e+01  2.26347274e+01  2.26581864e+01
  2.26687332e+01  2.26736402e+01  2.26803009e+01  2.27668032e+01
  2.27951248e+01  2.28426585e+01  2.29202494e+01  2.29898211e+01
  2.30647191e+01  2.31651051e+01  2.32788039e+01  4.41825603e+01]
nelec by numeric integration = 213.9997053594824
    CPU time for vxc    248.12 sec, wall time     16.52 sec
    CPU time for df vj and vk   1147.15 sec, wall time     90.41 sec
E1 = -6827.411648688932  Ecoul = 3203.1382828841465  Exc = -170.29532747923938
cycle= 1 E= -1129.59524220583  delta_E= 3.37e-11  |g|= 1.58e-05  |ddm|= 2.91e-05
    CPU time for cycle= 1   1410.67 sec, wall time    108.58 sec
  HOMO = -0.215502249367469  LUMO = -0.0365269692397154
  mo_energy =
[-1.91968526e+01 -1.02730632e+01 -1.02404604e+01 -1.02396321e+01
 -1.02359148e+01 -1.02345972e+01 -1.02302670e+01 -1.02280113e+01
 -1.02272884e+01 -1.02272851e+01 -1.02269289e+01 -1.02263133e+01
 -1.02260943e+01 -1.02232232e+01 -1.02232159e+01 -1.02208268e+01
 -1.02190976e+01 -1.02174976e+01 -1.02173570e+01 -1.02169347e+01
 -1.02157749e+01 -1.02155630e+01 -1.02151887e+01 -1.02146094e+01
 -1.02098989e+01 -1.02097589e+01 -1.02096813e+01 -1.02096046e+01
 -1.04187245e+00 -8.91463790e-01 -8.69201160e-01 -8.44611697e-01
 -8.31199364e-01 -8.10897231e-01 -8.05788302e-01 -7.84423250e-01
 -7.82187975e-01 -7.59587182e-01 -7.52096466e-01 -7.29808932e-01
 -7.09894769e-01 -6.98759004e-01 -6.94720140e-01 -6.89280495e-01
 -6.84712583e-01 -6.58245889e-01 -6.36780252e-01 -6.12693230e-01
 -6.10786917e-01 -6.01054909e-01 -5.95330509e-01 -5.76191558e-01
 -5.59982724e-01 -5.39314729e-01 -5.25278596e-01 -5.14030601e-01
 -5.06995165e-01 -4.97506003e-01 -4.93541087e-01 -4.84389638e-01
 -4.78962330e-01 -4.73402625e-01 -4.70817491e-01 -4.60357497e-01
 -4.58153009e-01 -4.56576201e-01 -4.53362356e-01 -4.47291573e-01
 -4.41356665e-01 -4.31972332e-01 -4.28200740e-01 -4.23554837e-01
 -4.22176848e-01 -4.17470021e-01 -4.09711349e-01 -4.07983770e-01
 -4.05263342e-01 -4.00076132e-01 -3.91846157e-01 -3.88850207e-01
 -3.84985544e-01 -3.82728217e-01 -3.79221118e-01 -3.71981230e-01
 -3.69617076e-01 -3.64176722e-01 -3.62053350e-01 -3.58423244e-01
 -3.55548820e-01 -3.53294573e-01 -3.44901901e-01 -3.40759801e-01
 -3.37640002e-01 -3.33089918e-01 -3.30157268e-01 -3.28015269e-01
 -3.25175586e-01 -3.24501275e-01 -3.16233326e-01 -3.15402076e-01
 -3.11800570e-01 -3.08179654e-01 -3.04594457e-01 -2.93925392e-01
 -2.80646216e-01 -2.67966206e-01 -2.15502249e-01 -3.65269692e-02
  9.00954801e-03  2.57689339e-02  3.89319942e-02  4.20197681e-02
  4.58512054e-02  4.93612310e-02  5.49595825e-02  6.11507253e-02
  6.60721708e-02  6.80400220e-02  7.30620523e-02  7.58268916e-02
  8.12036548e-02  8.42137180e-02  8.55685685e-02  9.23083241e-02
  9.40112636e-02  9.71305717e-02  9.79613708e-02  1.04091349e-01
  1.04700936e-01  1.07095711e-01  1.09493532e-01  1.10552280e-01
  1.15012361e-01  1.16994258e-01  1.19931475e-01  1.23596184e-01
  1.24964779e-01  1.30873279e-01  1.33519059e-01  1.35200982e-01
  1.37336675e-01  1.39919366e-01  1.43735427e-01  1.44628861e-01
  1.47013692e-01  1.48663125e-01  1.56177515e-01  1.59048760e-01
  1.61674102e-01  1.63232049e-01  1.65962763e-01  1.67764168e-01
  1.69777287e-01  1.73204972e-01  1.75304175e-01  1.78549218e-01
  1.82914495e-01  1.87505750e-01  1.90639612e-01  1.91639228e-01
  1.96825678e-01  2.00042088e-01  2.03027462e-01  2.04175048e-01
  2.09157345e-01  2.11604242e-01  2.12389787e-01  2.15905333e-01
  2.20152076e-01  2.25231962e-01  2.27913221e-01  2.28823158e-01
  2.31455861e-01  2.32100932e-01  2.35829935e-01  2.37891731e-01
  2.42019549e-01  2.44298808e-01  2.51418248e-01  2.53379522e-01
  2.57907017e-01  2.59109893e-01  2.61973859e-01  2.67192398e-01
  2.70231247e-01  2.72879068e-01  2.77080303e-01  2.81943774e-01
  2.82723804e-01  2.87906075e-01  2.91707594e-01  2.96055148e-01
  2.97731875e-01  2.99911537e-01  3.04465529e-01  3.05554180e-01
  3.10790985e-01  3.15684166e-01  3.16812514e-01  3.21806608e-01
  3.26415559e-01  3.30129871e-01  3.33782680e-01  3.34453599e-01
  3.37690243e-01  3.41145352e-01  3.44821936e-01  3.51255945e-01
  3.56716278e-01  3.58856549e-01  3.63630092e-01  3.65892446e-01
  3.69313367e-01  3.70827800e-01  3.81025921e-01  3.84963542e-01
  3.86594485e-01  3.89195598e-01  3.91562760e-01  3.95461564e-01
  3.99668722e-01  4.02577258e-01  4.03897487e-01  4.06968738e-01
  4.10750849e-01  4.13256225e-01  4.17031685e-01  4.18452231e-01
  4.21194827e-01  4.24318226e-01  4.26507156e-01  4.27785633e-01
  4.30585637e-01  4.31436481e-01  4.32946892e-01  4.35869321e-01
  4.36692928e-01  4.39932941e-01  4.41222006e-01  4.45013350e-01
  4.46953616e-01  4.49313567e-01  4.50657014e-01  4.51870232e-01
  4.55443631e-01  4.57219344e-01  4.57574471e-01  4.58866066e-01
  4.60148880e-01  4.62106814e-01  4.64749444e-01  4.69128218e-01
  4.70594773e-01  4.73062238e-01  4.75322718e-01  4.77718042e-01
  4.78915211e-01  4.81311678e-01  4.83673366e-01  4.85699053e-01
  4.87140055e-01  4.89488488e-01  4.91042578e-01  4.93732539e-01
  4.96606308e-01  4.97428128e-01  5.01294513e-01  5.03951393e-01
  5.05998352e-01  5.06656498e-01  5.12362654e-01  5.12895857e-01
  5.15816956e-01  5.21052793e-01  5.23298437e-01  5.26486087e-01
  5.29712420e-01  5.30693980e-01  5.36553759e-01  5.37789855e-01
  5.39169796e-01  5.43989093e-01  5.45241848e-01  5.52726424e-01
  5.54552330e-01  5.59704207e-01  5.61755619e-01  5.68262938e-01
  5.72353031e-01  5.73748147e-01  5.78855766e-01  5.85924508e-01
  5.88804641e-01  5.90525248e-01  5.94496239e-01  5.97087088e-01
  6.01011365e-01  6.05989566e-01  6.08179311e-01  6.13843122e-01
  6.14923171e-01  6.20973555e-01  6.23207665e-01  6.33545833e-01
  6.37721939e-01  6.42801592e-01  6.47967865e-01  6.57489735e-01
  6.59269820e-01  6.64264591e-01  6.66534672e-01  6.73805957e-01
  6.80650790e-01  6.82874805e-01  6.93226763e-01  6.95786277e-01
  6.98524490e-01  7.02561352e-01  7.05636585e-01  7.13473691e-01
  7.22866022e-01  7.24151229e-01  7.27961825e-01  7.32926040e-01
  7.40998948e-01  7.44273474e-01  7.52011888e-01  7.55577086e-01
  7.59088144e-01  7.64757829e-01  7.69720241e-01  7.77502033e-01
  7.83821666e-01  7.88794768e-01  7.93347219e-01  7.98634551e-01
  8.04271774e-01  8.07434781e-01  8.15934698e-01  8.21035178e-01
  8.27142503e-01  8.28697052e-01  8.36888934e-01  8.39177681e-01
  8.47623697e-01  8.50111562e-01  8.52909178e-01  8.54821682e-01
  8.65268421e-01  8.70717181e-01  8.74762731e-01  8.79353178e-01
  8.83258387e-01  8.85953128e-01  8.92599281e-01  8.96219311e-01
  8.97302373e-01  9.01374340e-01  9.07502501e-01  9.13785723e-01
  9.18375778e-01  9.21404941e-01  9.27655059e-01  9.32753029e-01
  9.37572110e-01  9.47286696e-01  9.54833505e-01  9.64159607e-01
  9.67054394e-01  9.69712746e-01  9.73194081e-01  9.79647464e-01
  9.81990238e-01  9.88331365e-01  9.91596011e-01  9.95501310e-01
  1.00035615e+00  1.00662051e+00  1.01102170e+00  1.01259377e+00
  1.01717840e+00  1.02536261e+00  1.03438779e+00  1.03903957e+00
  1.04300913e+00  1.05008883e+00  1.05120137e+00  1.05790378e+00
  1.06137897e+00  1.06975613e+00  1.07591874e+00  1.07841503e+00
  1.08581699e+00  1.09053810e+00  1.09533830e+00  1.10009769e+00
  1.10525897e+00  1.10811401e+00  1.11337629e+00  1.11717014e+00
  1.12817866e+00  1.13054765e+00  1.13700783e+00  1.13965946e+00
  1.14626910e+00  1.15198639e+00  1.15589320e+00  1.15943956e+00
  1.16388571e+00  1.17033692e+00  1.17276000e+00  1.17906312e+00
  1.18342851e+00  1.18916604e+00  1.19501144e+00  1.19905484e+00
  1.20202915e+00  1.20798675e+00  1.21359149e+00  1.21690346e+00
  1.22613464e+00  1.22896771e+00  1.23318055e+00  1.23468637e+00
  1.23798097e+00  1.24408812e+00  1.24907112e+00  1.25258527e+00
  1.25616454e+00  1.26030717e+00  1.26571239e+00  1.26961936e+00
  1.27889329e+00  1.28157910e+00  1.28608252e+00  1.29339707e+00
  1.29587220e+00  1.30088161e+00  1.30947999e+00  1.31370271e+00
  1.31981184e+00  1.32398717e+00  1.32984739e+00  1.33490355e+00
  1.33895357e+00  1.34251935e+00  1.34984191e+00  1.35528180e+00
  1.36072137e+00  1.36250180e+00  1.36610096e+00  1.37447164e+00
  1.38822333e+00  1.39890648e+00  1.40363276e+00  1.40630321e+00
  1.41006865e+00  1.41606503e+00  1.42222605e+00  1.42931128e+00
  1.43098151e+00  1.43626742e+00  1.45123862e+00  1.45605903e+00
  1.47092771e+00  1.47353450e+00  1.47547596e+00  1.48799732e+00
  1.49749759e+00  1.50093796e+00  1.51160388e+00  1.51356776e+00
  1.52615161e+00  1.53531434e+00  1.54592519e+00  1.54749743e+00
  1.55025471e+00  1.55634981e+00  1.56056969e+00  1.56260567e+00
  1.56642718e+00  1.56940807e+00  1.57546930e+00  1.58232272e+00
  1.58399213e+00  1.59186812e+00  1.59712512e+00  1.59904379e+00
  1.60383661e+00  1.60639025e+00  1.60862340e+00  1.61072097e+00
  1.61822172e+00  1.62050718e+00  1.62612573e+00  1.63078020e+00
  1.63154063e+00  1.63543770e+00  1.63913936e+00  1.64092431e+00
  1.64259063e+00  1.65029639e+00  1.65270647e+00  1.65969111e+00
  1.66470668e+00  1.66646639e+00  1.66897357e+00  1.67495049e+00
  1.67864152e+00  1.68164319e+00  1.68195925e+00  1.68880343e+00
  1.69241707e+00  1.69767352e+00  1.70442745e+00  1.70852918e+00
  1.71454539e+00  1.71739795e+00  1.71969325e+00  1.72632321e+00
  1.73211879e+00  1.74338182e+00  1.74866460e+00  1.75128078e+00
  1.75532993e+00  1.76072496e+00  1.76358158e+00  1.76978893e+00
  1.77508491e+00  1.77994745e+00  1.78522112e+00  1.78950488e+00
  1.79543641e+00  1.80503221e+00  1.81173632e+00  1.81562539e+00
  1.82510012e+00  1.82922496e+00  1.83272080e+00  1.83616894e+00
  1.84170714e+00  1.84266381e+00  1.84725941e+00  1.85620217e+00
  1.86222965e+00  1.87061535e+00  1.87264081e+00  1.88356997e+00
  1.88995727e+00  1.89548415e+00  1.89756250e+00  1.90411427e+00
  1.90775155e+00  1.90963525e+00  1.91552106e+00  1.92015037e+00
  1.92551065e+00  1.93011069e+00  1.94124408e+00  1.94633462e+00
  1.95340242e+00  1.96130392e+00  1.96534475e+00  1.96765428e+00
  1.96994015e+00  1.97709879e+00  1.98953560e+00  1.99228132e+00
  1.99469121e+00  2.00042676e+00  2.00629595e+00  2.01521571e+00
  2.02210172e+00  2.02851817e+00  2.03045643e+00  2.03483404e+00
  2.04044341e+00  2.04982894e+00  2.05414081e+00  2.05901965e+00
  2.06298873e+00  2.07020150e+00  2.07623365e+00  2.07912644e+00
  2.08834608e+00  2.09473010e+00  2.09679661e+00  2.10236407e+00
  2.10939401e+00  2.11425814e+00  2.11872116e+00  2.12824432e+00
  2.13399685e+00  2.14211474e+00  2.14825861e+00  2.15315051e+00
  2.15590080e+00  2.16283885e+00  2.16432392e+00  2.16854492e+00
  2.18469399e+00  2.19314421e+00  2.19773159e+00  2.20242621e+00
  2.20543228e+00  2.21020714e+00  2.21531278e+00  2.22314997e+00
  2.22433741e+00  2.22863307e+00  2.24004904e+00  2.24827373e+00
  2.25322488e+00  2.26186876e+00  2.26785667e+00  2.27342238e+00
  2.28570696e+00  2.28952904e+00  2.29596051e+00  2.29939458e+00
  2.30449495e+00  2.30833208e+00  2.31027927e+00  2.31975054e+00
  2.32938463e+00  2.33558712e+00  2.34256525e+00  2.34788883e+00
  2.35159981e+00  2.35860719e+00  2.35893161e+00  2.37042312e+00
  2.37372693e+00  2.38155852e+00  2.38768031e+00  2.38891160e+00
  2.39215173e+00  2.40078627e+00  2.40650289e+00  2.41722904e+00
  2.42088573e+00  2.42393290e+00  2.42924754e+00  2.43027286e+00
  2.43465168e+00  2.44119065e+00  2.44733120e+00  2.45174686e+00
  2.45626701e+00  2.46278017e+00  2.46800517e+00  2.47370062e+00
  2.47506625e+00  2.48274872e+00  2.48951514e+00  2.49189718e+00
  2.49826281e+00  2.50665050e+00  2.51195924e+00  2.51614712e+00
  2.52023518e+00  2.52380450e+00  2.52742554e+00  2.53060249e+00
  2.53498034e+00  2.53644257e+00  2.54502272e+00  2.55135216e+00
  2.55389545e+00  2.56121866e+00  2.56327096e+00  2.56579787e+00
  2.56913913e+00  2.57044121e+00  2.57282715e+00  2.57564121e+00
  2.58236661e+00  2.58453238e+00  2.58756098e+00  2.59211196e+00
  2.59391568e+00  2.59835492e+00  2.60742367e+00  2.61064473e+00
  2.61398289e+00  2.62035387e+00  2.62247867e+00  2.62610688e+00
  2.63076689e+00  2.63857556e+00  2.63958685e+00  2.64151050e+00
  2.64710938e+00  2.64843352e+00  2.65469899e+00  2.65942076e+00
  2.66243179e+00  2.66350135e+00  2.66771810e+00  2.67202908e+00
  2.67655875e+00  2.67781532e+00  2.68126297e+00  2.69212798e+00
  2.69433843e+00  2.69690041e+00  2.70142487e+00  2.70453559e+00
  2.71285842e+00  2.71402219e+00  2.71665581e+00  2.72280706e+00
  2.72446577e+00  2.73445180e+00  2.73671581e+00  2.74476801e+00
  2.74723258e+00  2.75055886e+00  2.75130656e+00  2.75500323e+00
  2.75814292e+00  2.76202212e+00  2.76472470e+00  2.77704052e+00
  2.77772732e+00  2.78575270e+00  2.78990048e+00  2.79295412e+00
  2.79587421e+00  2.79678601e+00  2.80345718e+00  2.80541680e+00
  2.81359449e+00  2.81595044e+00  2.81933967e+00  2.82819427e+00
  2.83026052e+00  2.83923338e+00  2.84794018e+00  2.85224341e+00
  2.85452656e+00  2.85780217e+00  2.87058936e+00  2.87498522e+00
  2.87906108e+00  2.88672025e+00  2.89086105e+00  2.89695898e+00
  2.90023090e+00  2.90679899e+00  2.91300935e+00  2.91691898e+00
  2.92081959e+00  2.92915942e+00  2.93383727e+00  2.94000939e+00
  2.94483228e+00  2.94686204e+00  2.94984251e+00  2.95939206e+00
  2.96828143e+00  2.97749779e+00  2.98480960e+00  2.98833890e+00
  2.99050044e+00  2.99222854e+00  2.99896272e+00  3.01293678e+00
  3.02001811e+00  3.02186219e+00  3.03008953e+00  3.03417179e+00
  3.03820320e+00  3.04996571e+00  3.05336156e+00  3.05596994e+00
  3.05811525e+00  3.06633403e+00  3.07365012e+00  3.07894099e+00
  3.09167922e+00  3.09983989e+00  3.10116104e+00  3.10687608e+00
  3.11368105e+00  3.11837122e+00  3.12259737e+00  3.12381187e+00
  3.13213409e+00  3.13751822e+00  3.14173687e+00  3.14832831e+00
  3.15244374e+00  3.15642710e+00  3.16574424e+00  3.17080789e+00
  3.17217970e+00  3.17604545e+00  3.17789296e+00  3.18304230e+00
  3.18430451e+00  3.19447746e+00  3.20038659e+00  3.20411064e+00
  3.21134076e+00  3.21362197e+00  3.21411152e+00  3.22442248e+00
  3.22548728e+00  3.23274193e+00  3.23362063e+00  3.23943926e+00
  3.24674637e+00  3.25084860e+00  3.25361004e+00  3.26255083e+00
  3.26609033e+00  3.26761947e+00  3.27648183e+00  3.28011333e+00
  3.28341389e+00  3.28699793e+00  3.29051851e+00  3.29320567e+00
  3.29519808e+00  3.29793034e+00  3.30086368e+00  3.30581261e+00
  3.31151144e+00  3.31397378e+00  3.31703890e+00  3.32407896e+00
  3.32590761e+00  3.33128584e+00  3.33730594e+00  3.34075553e+00
  3.34224357e+00  3.35515479e+00  3.35649977e+00  3.36102209e+00
  3.36419961e+00  3.37029591e+00  3.37510937e+00  3.37585404e+00
  3.38365367e+00  3.38584177e+00  3.39224404e+00  3.39528989e+00
  3.39617429e+00  3.40051112e+00  3.40833697e+00  3.41104037e+00
  3.41743265e+00  3.41983183e+00  3.42281259e+00  3.42397129e+00
  3.43118505e+00  3.43991889e+00  3.44339514e+00  3.44619162e+00
  3.44950340e+00  3.45285895e+00  3.45532641e+00  3.46233373e+00
  3.46455787e+00  3.47109432e+00  3.47526145e+00  3.47750081e+00
  3.47955573e+00  3.48880389e+00  3.49377584e+00  3.49774404e+00
  3.50214252e+00  3.50341271e+00  3.51547384e+00  3.51893352e+00
  3.51942441e+00  3.52577249e+00  3.52895725e+00  3.53642496e+00
  3.54098418e+00  3.54435384e+00  3.54919399e+00  3.55184353e+00
  3.55876490e+00  3.56542616e+00  3.56773241e+00  3.57189734e+00
  3.57602383e+00  3.57843607e+00  3.58595368e+00  3.58798718e+00
  3.59826868e+00  3.60405145e+00  3.61025607e+00  3.61763191e+00
  3.61938793e+00  3.62033219e+00  3.62720693e+00  3.62811520e+00
  3.63744286e+00  3.64645792e+00  3.65101505e+00  3.65464909e+00
  3.66092068e+00  3.66478424e+00  3.66985781e+00  3.67471568e+00
  3.67683274e+00  3.68662394e+00  3.69257955e+00  3.69943270e+00
  3.70142365e+00  3.70974102e+00  3.71356792e+00  3.71565334e+00
  3.72809411e+00  3.73305039e+00  3.73835235e+00  3.74250352e+00
  3.75555176e+00  3.75923181e+00  3.76410817e+00  3.77372305e+00
  3.77476163e+00  3.78214679e+00  3.78964045e+00  3.79411403e+00
  3.80528049e+00  3.80678392e+00  3.80907500e+00  3.81776317e+00
  3.82827398e+00  3.83134041e+00  3.83933717e+00  3.85549993e+00
  3.86806737e+00  3.87008459e+00  3.88506048e+00  3.88970899e+00
  3.90492156e+00  3.90723635e+00  3.91911088e+00  3.92276732e+00
  3.93609062e+00  3.94384421e+00  3.94975562e+00  3.95353259e+00
  3.96739256e+00  3.97219354e+00  3.97838400e+00  3.98131765e+00
  3.98204122e+00  3.98313354e+00  4.00140197e+00  4.00637641e+00
  4.01059816e+00  4.01995633e+00  4.02786291e+00  4.03114891e+00
  4.03272945e+00  4.03517816e+00  4.04419340e+00  4.05212840e+00
  4.05822627e+00  4.06209045e+00  4.06603555e+00  4.07394539e+00
  4.07897256e+00  4.08003366e+00  4.09170818e+00  4.09753890e+00
  4.10219803e+00  4.10740462e+00  4.11177221e+00  4.11621590e+00
  4.12835588e+00  4.13778522e+00  4.14011968e+00  4.14385782e+00
  4.15887846e+00  4.16375841e+00  4.17117207e+00  4.18021422e+00
  4.18363990e+00  4.19076191e+00  4.20227814e+00  4.21373188e+00
  4.21581709e+00  4.22608544e+00  4.22817696e+00  4.23469444e+00
  4.23647270e+00  4.24895637e+00  4.26195565e+00  4.27156872e+00
  4.27417220e+00  4.28572031e+00  4.28704049e+00  4.30784242e+00
  4.31943718e+00  4.33038560e+00  4.34006602e+00  4.34590892e+00
  4.34860723e+00  4.36799901e+00  4.37482267e+00  4.38619340e+00
  4.39077746e+00  4.39524770e+00  4.39763553e+00  4.40603914e+00
  4.41394642e+00  4.41819445e+00  4.43040370e+00  4.44589721e+00
  4.45142712e+00  4.45473886e+00  4.46283813e+00  4.47941310e+00
  4.48522965e+00  4.49157342e+00  4.50297209e+00  4.50393855e+00
  4.51155209e+00  4.52002846e+00  4.52641286e+00  4.53171685e+00
  4.53793102e+00  4.54112952e+00  4.54754838e+00  4.55453572e+00
  4.56249097e+00  4.57745447e+00  4.58381653e+00  4.60004314e+00
  4.60433207e+00  4.61031920e+00  4.61807376e+00  4.62767970e+00
  4.64971873e+00  4.65529341e+00  4.66503050e+00  4.67841702e+00
  4.68497664e+00  4.70071706e+00  4.71525582e+00  4.72274346e+00
  4.73188826e+00  4.74368204e+00  4.75760102e+00  4.76770707e+00
  4.78568009e+00  4.80021672e+00  4.80454809e+00  4.81923035e+00
  4.82475847e+00  4.83556217e+00  4.84305306e+00  4.85914212e+00
  4.87237960e+00  4.87779699e+00  4.88284230e+00  4.90466005e+00
  4.91860330e+00  4.92658917e+00  4.94553481e+00  4.95319495e+00
  4.97486871e+00  4.98285380e+00  5.01080213e+00  5.02130174e+00
  5.03151807e+00  5.03820263e+00  5.05262715e+00  5.08247929e+00
  5.09949127e+00  5.13021400e+00  5.15112733e+00  5.15846600e+00
  5.19412496e+00  5.21257778e+00  5.23047428e+00  5.25888413e+00
  5.28879243e+00  5.30166747e+00  5.31730300e+00  5.35247047e+00
  5.38395064e+00  5.40716309e+00  5.42520761e+00  5.51962260e+00
  5.53166294e+00  5.59541606e+00  5.62483674e+00  5.75393868e+00
  5.82159362e+00  5.96248161e+00  6.27961210e+00  6.54041153e+00
  6.79992990e+00  6.87696828e+00  7.02850546e+00  7.19975540e+00
  2.23645466e+01  2.23882445e+01  2.24145420e+01  2.24764410e+01
  2.25216254e+01  2.25305714e+01  2.25364234e+01  2.25728151e+01
  2.25848490e+01  2.25901033e+01  2.25972114e+01  2.26027990e+01
  2.26078475e+01  2.26295444e+01  2.26347281e+01  2.26581866e+01
  2.26687333e+01  2.26736408e+01  2.26803019e+01  2.27668030e+01
  2.27951274e+01  2.28426585e+01  2.29202513e+01  2.29898272e+01
  2.30647191e+01  2.31651069e+01  2.32788032e+01  4.41825545e+01]
nelec by numeric integration = 213.99970535994225
    CPU time for vxc    263.41 sec, wall time     17.57 sec
    CPU time for df vj and vk   1146.94 sec, wall time     87.86 sec
E1 = -6827.411575682191  Ecoul = 3203.138211649937  Exc = -170.29532925167135
cycle= 2 E= -1129.59524220573  delta_E= 9.91e-11  |g|= 2.59e-05  |ddm|= 4.53e-05
    CPU time for cycle= 2   1425.06 sec, wall time    107.00 sec
  HOMO = -0.215502291239225  LUMO = -0.0365268896782368
  mo_energy =
[-1.91968488e+01 -1.02730628e+01 -1.02404579e+01 -1.02396291e+01
 -1.02359200e+01 -1.02345956e+01 -1.02302701e+01 -1.02280101e+01
 -1.02272868e+01 -1.02272857e+01 -1.02269276e+01 -1.02263142e+01
 -1.02260939e+01 -1.02232222e+01 -1.02232200e+01 -1.02208259e+01
 -1.02190990e+01 -1.02174997e+01 -1.02173583e+01 -1.02169362e+01
 -1.02157756e+01 -1.02155611e+01 -1.02151911e+01 -1.02146085e+01
 -1.02098990e+01 -1.02097599e+01 -1.02096813e+01 -1.02096050e+01
 -1.04187078e+00 -8.91465141e-01 -8.69200363e-01 -8.44611746e-01
 -8.31199693e-01 -8.10897488e-01 -8.05788628e-01 -7.84423221e-01
 -7.82187449e-01 -7.59587232e-01 -7.52097144e-01 -7.29809306e-01
 -7.09895316e-01 -6.98759111e-01 -6.94720461e-01 -6.89280503e-01
 -6.84713187e-01 -6.58245945e-01 -6.36780323e-01 -6.12693358e-01
 -6.10786667e-01 -6.01054431e-01 -5.95330907e-01 -5.76191870e-01
 -5.59982867e-01 -5.39315426e-01 -5.25278850e-01 -5.14031174e-01
 -5.06994608e-01 -4.97506394e-01 -4.93541291e-01 -4.84389827e-01
 -4.78962224e-01 -4.73402857e-01 -4.70817628e-01 -4.60357535e-01
 -4.58153049e-01 -4.56575933e-01 -4.53362150e-01 -4.47291358e-01
 -4.41356851e-01 -4.31972618e-01 -4.28201006e-01 -4.23555158e-01
 -4.22176293e-01 -4.17470188e-01 -4.09711746e-01 -4.07984121e-01
 -4.05263654e-01 -4.00076413e-01 -3.91846378e-01 -3.88850494e-01
 -3.84985470e-01 -3.82728422e-01 -3.79221121e-01 -3.71981151e-01
 -3.69616576e-01 -3.64176687e-01 -3.62053383e-01 -3.58423020e-01
 -3.55548834e-01 -3.53294623e-01 -3.44902047e-01 -3.40759952e-01
 -3.37639715e-01 -3.33089679e-01 -3.30157524e-01 -3.28015564e-01
 -3.25175890e-01 -3.24501782e-01 -3.16233693e-01 -3.15402597e-01
 -3.11801548e-01 -3.08180054e-01 -3.04595135e-01 -2.93926296e-01
 -2.80644956e-01 -2.67966143e-01 -2.15502291e-01 -3.65268897e-02
  9.00972879e-03  2.57687031e-02  3.89319800e-02  4.20194977e-02
  4.58512959e-02  4.93610911e-02  5.49595114e-02  6.11507535e-02
  6.60721559e-02  6.80399338e-02  7.30619437e-02  7.58266966e-02
  8.12034444e-02  8.42135409e-02  8.55685962e-02  9.23083425e-02
  9.40111461e-02  9.71304690e-02  9.79612151e-02  1.04091401e-01
  1.04700883e-01  1.07095733e-01  1.09493472e-01  1.10552366e-01
  1.15012214e-01  1.16994073e-01  1.19931423e-01  1.23596038e-01
  1.24964680e-01  1.30873200e-01  1.33519086e-01  1.35200827e-01
  1.37336598e-01  1.39919063e-01  1.43735263e-01  1.44628903e-01
  1.47013521e-01  1.48662684e-01  1.56177264e-01  1.59048718e-01
  1.61674201e-01  1.63231793e-01  1.65962684e-01  1.67763755e-01
  1.69777173e-01  1.73204965e-01  1.75304111e-01  1.78549220e-01
  1.82914489e-01  1.87505624e-01  1.90639665e-01  1.91639288e-01
  1.96825548e-01  2.00042008e-01  2.03027260e-01  2.04174932e-01
  2.09157398e-01  2.11604068e-01  2.12389713e-01  2.15905015e-01
  2.20151960e-01  2.25231719e-01  2.27913298e-01  2.28823174e-01
  2.31455854e-01  2.32100758e-01  2.35829708e-01  2.37891596e-01
  2.42019365e-01  2.44298654e-01  2.51418160e-01  2.53379378e-01
  2.57906884e-01  2.59109782e-01  2.61973678e-01  2.67192159e-01
  2.70231040e-01  2.72879286e-01  2.77080115e-01  2.81943792e-01
  2.82723703e-01  2.87905747e-01  2.91707515e-01  2.96054865e-01
  2.97731564e-01  2.99911325e-01  3.04465381e-01  3.05554104e-01
  3.10790815e-01  3.15684178e-01  3.16811997e-01  3.21806459e-01
  3.26415394e-01  3.30130029e-01  3.33782465e-01  3.34453626e-01
  3.37690300e-01  3.41145092e-01  3.44821692e-01  3.51256170e-01
  3.56716331e-01  3.58856483e-01  3.63629829e-01  3.65892157e-01
  3.69313173e-01  3.70827884e-01  3.81025889e-01  3.84963289e-01
  3.86594382e-01  3.89195580e-01  3.91562749e-01  3.95461589e-01
  3.99668485e-01  4.02577227e-01  4.03897598e-01  4.06968651e-01
  4.10750733e-01  4.13256183e-01  4.17031613e-01  4.18452258e-01
  4.21194817e-01  4.24318212e-01  4.26507120e-01  4.27785495e-01
  4.30585473e-01  4.31436286e-01  4.32946960e-01  4.35869155e-01
  4.36692663e-01  4.39932792e-01  4.41221913e-01  4.45013370e-01
  4.46953431e-01  4.49313532e-01  4.50656826e-01  4.51870183e-01
  4.55443566e-01  4.57219152e-01  4.57574367e-01  4.58865823e-01
  4.60148733e-01  4.62106676e-01  4.64749361e-01  4.69128069e-01
  4.70594689e-01  4.73062067e-01  4.75322623e-01  4.77717931e-01
  4.78915063e-01  4.81311750e-01  4.83673240e-01  4.85698899e-01
  4.87139910e-01  4.89488281e-01  4.91042462e-01  4.93732502e-01
  4.96606230e-01  4.97428059e-01  5.01294331e-01  5.03951360e-01
  5.05998297e-01  5.06656416e-01  5.12362525e-01  5.12895677e-01
  5.15816860e-01  5.21052587e-01  5.23298226e-01  5.26485874e-01
  5.29712202e-01  5.30693936e-01  5.36553655e-01  5.37789660e-01
  5.39169590e-01  5.43988944e-01  5.45241724e-01  5.52726288e-01
  5.54552192e-01  5.59703988e-01  5.61755574e-01  5.68262740e-01
  5.72352744e-01  5.73748129e-01  5.78855914e-01  5.85924370e-01
  5.88804665e-01  5.90525064e-01  5.94495927e-01  5.97086871e-01
  6.01011265e-01  6.05989435e-01  6.08179524e-01  6.13842716e-01
  6.14923338e-01  6.20973456e-01  6.23207469e-01  6.33545608e-01
  6.37721615e-01  6.42801336e-01  6.47967849e-01  6.57489447e-01
  6.59269716e-01  6.64264520e-01  6.66534521e-01  6.73805977e-01
  6.80650624e-01  6.82874527e-01  6.93226598e-01  6.95786221e-01
  6.98524623e-01  7.02561297e-01  7.05636303e-01  7.13473515e-01
  7.22865961e-01  7.24151054e-01  7.27961729e-01  7.32925713e-01
  7.40998822e-01  7.44273457e-01  7.52011698e-01  7.55577032e-01
  7.59087753e-01  7.64757938e-01  7.69720137e-01  7.77501815e-01
  7.83821609e-01  7.88794739e-01  7.93347219e-01  7.98634493e-01
  8.04271449e-01  8.07434697e-01  8.15934871e-01  8.21035272e-01
  8.27142261e-01  8.28696919e-01  8.36888756e-01  8.39177362e-01
  8.47623548e-01  8.50111533e-01  8.52909107e-01  8.54821362e-01
  8.65268402e-01  8.70717065e-01  8.74762613e-01  8.79353084e-01
  8.83258212e-01  8.85953087e-01  8.92599131e-01  8.96219576e-01
  8.97302344e-01  9.01374232e-01  9.07502216e-01  9.13785706e-01
  9.18375503e-01  9.21404912e-01  9.27655219e-01  9.32753119e-01
  9.37572040e-01  9.47286660e-01  9.54833386e-01  9.64159432e-01
  9.67054253e-01  9.69712617e-01  9.73193898e-01  9.79647129e-01
  9.81990111e-01  9.88331078e-01  9.91595693e-01  9.95501009e-01
  1.00035583e+00  1.00662045e+00  1.01102142e+00  1.01259368e+00
  1.01717818e+00  1.02536232e+00  1.03438760e+00  1.03903922e+00
  1.04300902e+00  1.05008857e+00  1.05120137e+00  1.05790349e+00
  1.06137882e+00  1.06975599e+00  1.07591852e+00  1.07841484e+00
  1.08581705e+00  1.09053796e+00  1.09533821e+00  1.10009752e+00
  1.10525876e+00  1.10811375e+00  1.11337612e+00  1.11716997e+00
  1.12817834e+00  1.13054770e+00  1.13700812e+00  1.13965946e+00
  1.14626888e+00  1.15198612e+00  1.15589281e+00  1.15943941e+00
  1.16388574e+00  1.17033684e+00  1.17275975e+00  1.17906287e+00
  1.18342838e+00  1.18916585e+00  1.19501126e+00  1.19905456e+00
  1.20202891e+00  1.20798698e+00  1.21359123e+00  1.21690350e+00
  1.22613443e+00  1.22896748e+00  1.23318066e+00  1.23468619e+00
  1.23798077e+00  1.24408820e+00  1.24907109e+00  1.25258534e+00
  1.25616434e+00  1.26030695e+00  1.26571251e+00  1.26961920e+00
  1.27889301e+00  1.28157896e+00  1.28608229e+00  1.29339693e+00
  1.29587185e+00  1.30088155e+00  1.30947995e+00  1.31370246e+00
  1.31981142e+00  1.32398672e+00  1.32984711e+00  1.33490353e+00
  1.33895318e+00  1.34251934e+00  1.34984179e+00  1.35528166e+00
  1.36072107e+00  1.36250157e+00  1.36610063e+00  1.37447138e+00
  1.38822316e+00  1.39890625e+00  1.40363255e+00  1.40630306e+00
  1.41006841e+00  1.41606495e+00  1.42222572e+00  1.42931100e+00
  1.43098131e+00  1.43626718e+00  1.45123880e+00  1.45605900e+00
  1.47092711e+00  1.47353465e+00  1.47547586e+00  1.48799722e+00
  1.49749705e+00  1.50093756e+00  1.51160356e+00  1.51356746e+00
  1.52615157e+00  1.53531454e+00  1.54592514e+00  1.54749739e+00
  1.55025460e+00  1.55634956e+00  1.56056950e+00  1.56260559e+00
  1.56642709e+00  1.56940800e+00  1.57546910e+00  1.58232271e+00
  1.58399196e+00  1.59186799e+00  1.59712512e+00  1.59904382e+00
  1.60383661e+00  1.60639013e+00  1.60862328e+00  1.61072078e+00
  1.61822148e+00  1.62050701e+00  1.62612575e+00  1.63078026e+00
  1.63154052e+00  1.63543773e+00  1.63913935e+00  1.64092426e+00
  1.64259070e+00  1.65029634e+00  1.65270642e+00  1.65969110e+00
  1.66470621e+00  1.66646618e+00  1.66897341e+00  1.67495036e+00
  1.67864134e+00  1.68164294e+00  1.68195908e+00  1.68880376e+00
  1.69241699e+00  1.69767361e+00  1.70442726e+00  1.70852898e+00
  1.71454511e+00  1.71739773e+00  1.71969298e+00  1.72632283e+00
  1.73211868e+00  1.74338164e+00  1.74866428e+00  1.75128063e+00
  1.75532974e+00  1.76072471e+00  1.76358112e+00  1.76978883e+00
  1.77508459e+00  1.77994743e+00  1.78522087e+00  1.78950485e+00
  1.79543640e+00  1.80503246e+00  1.81173638e+00  1.81562537e+00
  1.82510014e+00  1.82922482e+00  1.83272087e+00  1.83616889e+00
  1.84170698e+00  1.84266360e+00  1.84725976e+00  1.85620186e+00
  1.86222963e+00  1.87061493e+00  1.87264046e+00  1.88356979e+00
  1.88995693e+00  1.89548409e+00  1.89756217e+00  1.90411437e+00
  1.90775127e+00  1.90963529e+00  1.91552080e+00  1.92014997e+00
  1.92551028e+00  1.93011051e+00  1.94124385e+00  1.94633435e+00
  1.95340212e+00  1.96130413e+00  1.96534491e+00  1.96765442e+00
  1.96993998e+00  1.97709851e+00  1.98953549e+00  1.99228153e+00
  1.99469088e+00  2.00042678e+00  2.00629575e+00  2.01521536e+00
  2.02210149e+00  2.02851781e+00  2.03045612e+00  2.03483388e+00
  2.04044306e+00  2.04982881e+00  2.05414057e+00  2.05901976e+00
  2.06298839e+00  2.07020107e+00  2.07623358e+00  2.07912643e+00
  2.08834573e+00  2.09472983e+00  2.09679682e+00  2.10236408e+00
  2.10939407e+00  2.11425802e+00  2.11872086e+00  2.12824409e+00
  2.13399652e+00  2.14211504e+00  2.14825813e+00  2.15315019e+00
  2.15590071e+00  2.16283877e+00  2.16432385e+00  2.16854481e+00
  2.18469375e+00  2.19314457e+00  2.19773216e+00  2.20242599e+00
  2.20543190e+00  2.21020684e+00  2.21531250e+00  2.22314954e+00
  2.22433700e+00  2.22863279e+00  2.24004892e+00  2.24827362e+00
  2.25322478e+00  2.26186871e+00  2.26785666e+00  2.27342207e+00
  2.28570660e+00  2.28952889e+00  2.29596028e+00  2.29939469e+00
  2.30449462e+00  2.30833178e+00  2.31027926e+00  2.31975024e+00
  2.32938479e+00  2.33558700e+00  2.34256498e+00  2.34788880e+00
  2.35159994e+00  2.35860708e+00  2.35893138e+00  2.37042313e+00
  2.37372634e+00  2.38155833e+00  2.38767996e+00  2.38891210e+00
  2.39215157e+00  2.40078602e+00  2.40650289e+00  2.41722878e+00
  2.42088554e+00  2.42393278e+00  2.42924761e+00  2.43027294e+00
  2.43465157e+00  2.44119058e+00  2.44733127e+00  2.45174668e+00
  2.45626660e+00  2.46277974e+00  2.46800511e+00  2.47370049e+00
  2.47506594e+00  2.48274844e+00  2.48951491e+00  2.49189709e+00
  2.49826269e+00  2.50665045e+00  2.51195923e+00  2.51614739e+00
  2.52023505e+00  2.52380430e+00  2.52742516e+00  2.53060270e+00
  2.53498011e+00  2.53644257e+00  2.54502299e+00  2.55135204e+00
  2.55389512e+00  2.56121833e+00  2.56327098e+00  2.56579784e+00
  2.56913926e+00  2.57044106e+00  2.57282696e+00  2.57564102e+00
  2.58236640e+00  2.58453247e+00  2.58756081e+00  2.59211200e+00
  2.59391559e+00  2.59835458e+00  2.60742375e+00  2.61064435e+00
  2.61398266e+00  2.62035361e+00  2.62247847e+00  2.62610680e+00
  2.63076662e+00  2.63857543e+00  2.63958670e+00  2.64151042e+00
  2.64710934e+00  2.64843322e+00  2.65469913e+00  2.65942056e+00
  2.66243186e+00  2.66350122e+00  2.66771826e+00  2.67202897e+00
  2.67655861e+00  2.67781535e+00  2.68126274e+00  2.69212790e+00
  2.69433823e+00  2.69690054e+00  2.70142490e+00  2.70453553e+00
  2.71285816e+00  2.71402199e+00  2.71665561e+00  2.72280700e+00
  2.72446565e+00  2.73445181e+00  2.73671583e+00  2.74476770e+00
  2.74723274e+00  2.75055855e+00  2.75130626e+00  2.75500318e+00
  2.75814264e+00  2.76202199e+00  2.76472458e+00  2.77704026e+00
  2.77772720e+00  2.78575259e+00  2.78990043e+00  2.79295383e+00
  2.79587394e+00  2.79678575e+00  2.80345703e+00  2.80541648e+00
  2.81359423e+00  2.81595010e+00  2.81933974e+00  2.82819392e+00
  2.83026007e+00  2.83923302e+00  2.84794040e+00  2.85224316e+00
  2.85452624e+00  2.85780189e+00  2.87058915e+00  2.87498519e+00
  2.87906092e+00  2.88672011e+00  2.89086072e+00  2.89695845e+00
  2.90023056e+00  2.90679946e+00  2.91300916e+00  2.91691879e+00
  2.92081956e+00  2.92915896e+00  2.93383711e+00  2.94000940e+00
  2.94483205e+00  2.94686163e+00  2.94984239e+00  2.95939156e+00
  2.96828108e+00  2.97749736e+00  2.98480956e+00  2.98833883e+00
  2.99050022e+00  2.99222867e+00  2.99896256e+00  3.01293635e+00
  3.02001764e+00  3.02186194e+00  3.03008925e+00  3.03417134e+00
  3.03820327e+00  3.04996554e+00  3.05336184e+00  3.05596953e+00
  3.05811518e+00  3.06633407e+00  3.07364993e+00  3.07894085e+00
  3.09167912e+00  3.09983955e+00  3.10116092e+00  3.10687594e+00
  3.11368107e+00  3.11837112e+00  3.12259710e+00  3.12381187e+00
  3.13213380e+00  3.13751801e+00  3.14173661e+00  3.14832816e+00
  3.15244349e+00  3.15642687e+00  3.16574393e+00  3.17080775e+00
  3.17217966e+00  3.17604545e+00  3.17789268e+00  3.18304207e+00
  3.18430429e+00  3.19447717e+00  3.20038615e+00  3.20411021e+00
  3.21134067e+00  3.21362169e+00  3.21411136e+00  3.22442269e+00
  3.22548701e+00  3.23274185e+00  3.23362035e+00  3.23943887e+00
  3.24674620e+00  3.25084819e+00  3.25361026e+00  3.26255054e+00
  3.26608990e+00  3.26761922e+00  3.27648164e+00  3.28011315e+00
  3.28341354e+00  3.28699781e+00  3.29051841e+00  3.29320547e+00
  3.29519841e+00  3.29792997e+00  3.30086354e+00  3.30581252e+00
  3.31151157e+00  3.31397394e+00  3.31703877e+00  3.32407930e+00
  3.32590721e+00  3.33128568e+00  3.33730600e+00  3.34075516e+00
  3.34224310e+00  3.35515462e+00  3.35649952e+00  3.36102195e+00
  3.36419945e+00  3.37029567e+00  3.37510915e+00  3.37585376e+00
  3.38365357e+00  3.38584163e+00  3.39224390e+00  3.39528974e+00
  3.39617446e+00  3.40051091e+00  3.40833699e+00  3.41104024e+00
  3.41743239e+00  3.41983155e+00  3.42281268e+00  3.42397099e+00
  3.43118483e+00  3.43991906e+00  3.44339521e+00  3.44619156e+00
  3.44950333e+00  3.45285878e+00  3.45532638e+00  3.46233373e+00
  3.46455774e+00  3.47109445e+00  3.47526123e+00  3.47750072e+00
  3.47955570e+00  3.48880386e+00  3.49377572e+00  3.49774384e+00
  3.50214259e+00  3.50341267e+00  3.51547341e+00  3.51893347e+00
  3.51942414e+00  3.52577219e+00  3.52895699e+00  3.53642470e+00
  3.54098388e+00  3.54435358e+00  3.54919368e+00  3.55184339e+00
  3.55876501e+00  3.56542633e+00  3.56773227e+00  3.57189707e+00
  3.57602359e+00  3.57843602e+00  3.58595353e+00  3.58798693e+00
  3.59826849e+00  3.60405130e+00  3.61025609e+00  3.61763176e+00
  3.61938764e+00  3.62033196e+00  3.62720700e+00  3.62811522e+00
  3.63744270e+00  3.64645781e+00  3.65101524e+00  3.65464912e+00
  3.66092010e+00  3.66478403e+00  3.66985769e+00  3.67471568e+00
  3.67683243e+00  3.68662350e+00  3.69257940e+00  3.69943229e+00
  3.70142333e+00  3.70974109e+00  3.71356771e+00  3.71565311e+00
  3.72809370e+00  3.73305030e+00  3.73835187e+00  3.74250335e+00
  3.75555123e+00  3.75923151e+00  3.76410784e+00  3.77372289e+00
  3.77476132e+00  3.78214654e+00  3.78964036e+00  3.79411395e+00
  3.80528015e+00  3.80678368e+00  3.80907482e+00  3.81776287e+00
  3.82827410e+00  3.83133999e+00  3.83933649e+00  3.85549955e+00
  3.86806757e+00  3.87008414e+00  3.88505989e+00  3.88970839e+00
  3.90492135e+00  3.90723634e+00  3.91911077e+00  3.92276744e+00
  3.93609041e+00  3.94384379e+00  3.94975543e+00  3.95353227e+00
  3.96739233e+00  3.97219319e+00  3.97838349e+00  3.98131772e+00
  3.98204078e+00  3.98313372e+00  4.00140147e+00  4.00637657e+00
  4.01059782e+00  4.01995614e+00  4.02786273e+00  4.03114868e+00
  4.03272909e+00  4.03517798e+00  4.04419351e+00  4.05212793e+00
  4.05822589e+00  4.06209053e+00  4.06603564e+00  4.07394493e+00
  4.07897304e+00  4.08003366e+00  4.09170792e+00  4.09753884e+00
  4.10219756e+00  4.10740461e+00  4.11177225e+00  4.11621653e+00
  4.12835567e+00  4.13778533e+00  4.14011968e+00  4.14385743e+00
  4.15887834e+00  4.16375837e+00  4.17117172e+00  4.18021394e+00
  4.18363975e+00  4.19076159e+00  4.20227809e+00  4.21373146e+00
  4.21581688e+00  4.22608484e+00  4.22817675e+00  4.23469443e+00
  4.23647275e+00  4.24895604e+00  4.26195575e+00  4.27156807e+00
  4.27417160e+00  4.28571995e+00  4.28704039e+00  4.30784174e+00
  4.31943647e+00  4.33038566e+00  4.34006567e+00  4.34590850e+00
  4.34860774e+00  4.36799889e+00  4.37482207e+00  4.38619278e+00
  4.39077666e+00  4.39524732e+00  4.39763531e+00  4.40603908e+00
  4.41394599e+00  4.41819400e+00  4.43040337e+00  4.44589706e+00
  4.45142632e+00  4.45473865e+00  4.46283870e+00  4.47941286e+00
  4.48522936e+00  4.49157345e+00  4.50297170e+00  4.50393842e+00
  4.51155177e+00  4.52002817e+00  4.52641237e+00  4.53171638e+00
  4.53793109e+00  4.54112891e+00  4.54754821e+00  4.55453585e+00
  4.56249052e+00  4.57745397e+00  4.58381633e+00  4.60004258e+00
  4.60433185e+00  4.61031885e+00  4.61807322e+00  4.62767988e+00
  4.64971865e+00  4.65529349e+00  4.66503055e+00  4.67841660e+00
  4.68497708e+00  4.70071696e+00  4.71525533e+00  4.72274320e+00
  4.73188797e+00  4.74368195e+00  4.75760075e+00  4.76770690e+00
  4.78568057e+00  4.80021604e+00  4.80454791e+00  4.81923044e+00
  4.82475846e+00  4.83556177e+00  4.84305283e+00  4.85914121e+00
  4.87237926e+00  4.87779674e+00  4.88284262e+00  4.90465938e+00
  4.91860322e+00  4.92658832e+00  4.94553514e+00  4.95319471e+00
  4.97486889e+00  4.98285373e+00  5.01080168e+00  5.02130222e+00
  5.03151766e+00  5.03820231e+00  5.05262659e+00  5.08247829e+00
  5.09949064e+00  5.13021359e+00  5.15112705e+00  5.15846538e+00
  5.19412420e+00  5.21257753e+00  5.23047459e+00  5.25888370e+00
  5.28879188e+00  5.30166779e+00  5.31730409e+00  5.35247030e+00
  5.38394983e+00  5.40716440e+00  5.42520707e+00  5.51962419e+00
  5.53166250e+00  5.59541599e+00  5.62483634e+00  5.75394025e+00
  5.82159524e+00  5.96248330e+00  6.27961395e+00  6.54041371e+00
  6.79993201e+00  6.87697037e+00  7.02850749e+00  7.19975732e+00
  2.23645459e+01  2.23882445e+01  2.24145419e+01  2.24764407e+01
  2.25216260e+01  2.25305713e+01  2.25364241e+01  2.25728148e+01
  2.25848486e+01  2.25901026e+01  2.25972115e+01  2.26027991e+01
  2.26078480e+01  2.26295448e+01  2.26347277e+01  2.26581866e+01
  2.26687332e+01  2.26736406e+01  2.26803013e+01  2.27668032e+01
  2.27951259e+01  2.28426583e+01  2.29202504e+01  2.29898237e+01
  2.30647192e+01  2.31651060e+01  2.32788037e+01  4.41825580e+01]
nelec by numeric integration = 213.99970535958926
    CPU time for vxc    247.91 sec, wall time     16.70 sec
    CPU time for df vj and vk   1130.55 sec, wall time     85.42 sec
E1 = -6827.411605289498  Ecoul = 3203.1382398893043  Exc = -170.2953278838848
cycle= 3 E= -1129.59524220589  delta_E= -1.53e-10  |g|= 2.69e-06  |ddm|= 2.8e-05
    CPU time for cycle= 3   1392.56 sec, wall time    103.59 sec
  HOMO = -0.215502303747411  LUMO = -0.0365269287498539
  mo_energy =
[-1.91968487e+01 -1.02730630e+01 -1.02404584e+01 -1.02396295e+01
 -1.02359202e+01 -1.02345954e+01 -1.02302700e+01 -1.02280104e+01
 -1.02272870e+01 -1.02272858e+01 -1.02269274e+01 -1.02263142e+01
 -1.02260937e+01 -1.02232222e+01 -1.02232203e+01 -1.02208260e+01
 -1.02190991e+01 -1.02174996e+01 -1.02173583e+01 -1.02169362e+01
 -1.02157757e+01 -1.02155609e+01 -1.02151909e+01 -1.02146084e+01
 -1.02098990e+01 -1.02097598e+01 -1.02096813e+01 -1.02096050e+01
 -1.04187083e+00 -8.91465165e-01 -8.69200552e-01 -8.44611715e-01
 -8.31199692e-01 -8.10897491e-01 -8.05788621e-01 -7.84423292e-01
 -7.82187587e-01 -7.59587227e-01 -7.52097142e-01 -7.29809338e-01
 -7.09895317e-01 -6.98759113e-01 -6.94720496e-01 -6.89280497e-01
 -6.84713216e-01 -6.58245997e-01 -6.36780308e-01 -6.12693380e-01
 -6.10786742e-01 -6.01054497e-01 -5.95330919e-01 -5.76191882e-01
 -5.59982873e-01 -5.39315439e-01 -5.25278886e-01 -5.14031152e-01
 -5.06994702e-01 -4.97506408e-01 -4.93541302e-01 -4.84389814e-01
 -4.78962251e-01 -4.73402880e-01 -4.70817635e-01 -4.60357578e-01
 -4.58153066e-01 -4.56575989e-01 -4.53362172e-01 -4.47291421e-01
 -4.41356849e-01 -4.31972608e-01 -4.28201009e-01 -4.23555144e-01
 -4.22176408e-01 -4.17470217e-01 -4.09711764e-01 -4.07984112e-01
 -4.05263667e-01 -4.00076424e-01 -3.91846372e-01 -3.88850485e-01
 -3.84985443e-01 -3.82728421e-01 -3.79221148e-01 -3.71981189e-01
 -3.69616654e-01 -3.64176708e-01 -3.62053385e-01 -3.58423059e-01
 -3.55548847e-01 -3.53294608e-01 -3.44902052e-01 -3.40759947e-01
 -3.37639765e-01 -3.33089754e-01 -3.30157583e-01 -3.28015574e-01
 -3.25175899e-01 -3.24501775e-01 -3.16233689e-01 -3.15402594e-01
 -3.11801575e-01 -3.08180062e-01 -3.04595148e-01 -2.93926318e-01
 -2.80645009e-01 -2.67966223e-01 -2.15502304e-01 -3.65269287e-02
  9.00965744e-03  2.57687038e-02  3.89319806e-02  4.20195045e-02
  4.58512702e-02  4.93610919e-02  5.49595197e-02  6.11507405e-02
  6.60721463e-02  6.80399287e-02  7.30619404e-02  7.58266998e-02
  8.12034446e-02  8.42135484e-02  8.55685835e-02  9.23083215e-02
  9.40111400e-02  9.71304767e-02  9.79612126e-02  1.04091385e-01
  1.04700868e-01  1.07095716e-01  1.09493469e-01  1.10552337e-01
  1.15012219e-01  1.16994073e-01  1.19931426e-01  1.23596040e-01
  1.24964679e-01  1.30873202e-01  1.33519062e-01  1.35200819e-01
  1.37336591e-01  1.39919061e-01  1.43735263e-01  1.44628877e-01
  1.47013512e-01  1.48662672e-01  1.56177268e-01  1.59048699e-01
  1.61674171e-01  1.63231786e-01  1.65962676e-01  1.67763750e-01
  1.69777165e-01  1.73204954e-01  1.75304103e-01  1.78549201e-01
  1.82914479e-01  1.87505628e-01  1.90639646e-01  1.91639270e-01
  1.96825553e-01  2.00042008e-01  2.03027266e-01  2.04174922e-01
  2.09157368e-01  2.11604065e-01  2.12389715e-01  2.15905011e-01
  2.20151968e-01  2.25231716e-01  2.27913263e-01  2.28823143e-01
  2.31455849e-01  2.32100752e-01  2.35829703e-01  2.37891594e-01
  2.42019355e-01  2.44298650e-01  2.51418144e-01  2.53379374e-01
  2.57906888e-01  2.59109782e-01  2.61973671e-01  2.67192148e-01
  2.70231046e-01  2.72879239e-01  2.77080087e-01  2.81943761e-01
  2.82723673e-01  2.87905744e-01  2.91707492e-01  2.96054857e-01
  2.97731567e-01  2.99911322e-01  3.04465379e-01  3.05554087e-01
  3.10790802e-01  3.15684134e-01  3.16811973e-01  3.21806460e-01
  3.26415378e-01  3.30129990e-01  3.33782462e-01  3.34453593e-01
  3.37690288e-01  3.41145079e-01  3.44821685e-01  3.51256132e-01
  3.56716299e-01  3.58856457e-01  3.63629816e-01  3.65892155e-01
  3.69313153e-01  3.70827858e-01  3.81025858e-01  3.84963286e-01
  3.86594359e-01  3.89195551e-01  3.91562734e-01  3.95461564e-01
  3.99668472e-01  4.02577209e-01  4.03897555e-01  4.06968632e-01
  4.10750720e-01  4.13256175e-01  4.17031593e-01  4.18452238e-01
  4.21194792e-01  4.24318196e-01  4.26507110e-01  4.27785474e-01
  4.30585453e-01  4.31436279e-01  4.32946922e-01  4.35869155e-01
  4.36692657e-01  4.39932784e-01  4.41221904e-01  4.45013345e-01
  4.46953424e-01  4.49313509e-01  4.50656814e-01  4.51870161e-01
  4.55443557e-01  4.57219149e-01  4.57574357e-01  4.58865818e-01
  4.60148734e-01  4.62106667e-01  4.64749341e-01  4.69128058e-01
  4.70594681e-01  4.73062041e-01  4.75322621e-01  4.77717928e-01
  4.78915059e-01  4.81311723e-01  4.83673237e-01  4.85698888e-01
  4.87139911e-01  4.89488280e-01  4.91042455e-01  4.93732491e-01
  4.96606208e-01  4.97428042e-01  5.01294331e-01  5.03951336e-01
  5.05998285e-01  5.06656417e-01  5.12362526e-01  5.12895674e-01
  5.15816862e-01  5.21052575e-01  5.23298228e-01  5.26485873e-01
  5.29712190e-01  5.30693909e-01  5.36553631e-01  5.37789656e-01
  5.39169586e-01  5.43988943e-01  5.45241711e-01  5.52726279e-01
  5.54552177e-01  5.59703980e-01  5.61755559e-01  5.68262736e-01
  5.72352734e-01  5.73748101e-01  5.78855843e-01  5.85924349e-01
  5.88804633e-01  5.90525065e-01  5.94495916e-01  5.97086866e-01
  6.01011245e-01  6.05989430e-01  6.08179491e-01  6.13842705e-01
  6.14923289e-01  6.20973450e-01  6.23207466e-01  6.33545614e-01
  6.37721613e-01  6.42801329e-01  6.47967812e-01  6.57489442e-01
  6.59269712e-01  6.64264505e-01  6.66534502e-01  6.73805940e-01
  6.80650623e-01  6.82874514e-01  6.93226591e-01  6.95786212e-01
  6.98524584e-01  7.02561285e-01  7.05636304e-01  7.13473515e-01
  7.22865965e-01  7.24151055e-01  7.27961731e-01  7.32925711e-01
  7.40998821e-01  7.44273437e-01  7.52011703e-01  7.55577030e-01
  7.59087747e-01  7.64757891e-01  7.69720128e-01  7.77501818e-01
  7.83821584e-01  7.88794715e-01  7.93347198e-01  7.98634478e-01
  8.04271450e-01  8.07434680e-01  8.15934829e-01  8.21035237e-01
  8.27142265e-01  8.28696931e-01  8.36888749e-01  8.39177354e-01
  8.47623537e-01  8.50111515e-01  8.52909077e-01  8.54821363e-01
  8.65268371e-01  8.70717075e-01  8.74762587e-01  8.79353053e-01
  8.83258203e-01  8.85953078e-01  8.92599121e-01  8.96219512e-01
  8.97302350e-01  9.01374223e-01  9.07502198e-01  9.13785683e-01
  9.18375493e-01  9.21404910e-01  9.27655178e-01  9.32753080e-01
  9.37572028e-01  9.47286625e-01  9.54833364e-01  9.64159410e-01
  9.67054248e-01  9.69712608e-01  9.73193891e-01  9.79647127e-01
  9.81990097e-01  9.88331056e-01  9.91595679e-01  9.95500987e-01
  1.00035582e+00  1.00662041e+00  1.01102142e+00  1.01259366e+00
  1.01717816e+00  1.02536232e+00  1.03438759e+00  1.03903922e+00
  1.04300899e+00  1.05008856e+00  1.05120135e+00  1.05790348e+00
  1.06137879e+00  1.06975597e+00  1.07591852e+00  1.07841484e+00
  1.08581702e+00  1.09053796e+00  1.09533821e+00  1.10009750e+00
  1.10525876e+00  1.10811374e+00  1.11337612e+00  1.11716996e+00
  1.12817832e+00  1.13054766e+00  1.13700806e+00  1.13965943e+00
  1.14626888e+00  1.15198612e+00  1.15589280e+00  1.15943939e+00
  1.16388571e+00  1.17033681e+00  1.17275973e+00  1.17906286e+00
  1.18342838e+00  1.18916584e+00  1.19501125e+00  1.19905453e+00
  1.20202888e+00  1.20798692e+00  1.21359121e+00  1.21690344e+00
  1.22613442e+00  1.22896747e+00  1.23318065e+00  1.23468618e+00
  1.23798075e+00  1.24408816e+00  1.24907107e+00  1.25258530e+00
  1.25616432e+00  1.26030694e+00  1.26571246e+00  1.26961920e+00
  1.27889299e+00  1.28157895e+00  1.28608228e+00  1.29339690e+00
  1.29587185e+00  1.30088152e+00  1.30947989e+00  1.31370244e+00
  1.31981139e+00  1.32398670e+00  1.32984708e+00  1.33490349e+00
  1.33895316e+00  1.34251934e+00  1.34984176e+00  1.35528163e+00
  1.36072106e+00  1.36250155e+00  1.36610063e+00  1.37447138e+00
  1.38822317e+00  1.39890624e+00  1.40363255e+00  1.40630304e+00
[...]
  9.18375488e-01  9.21404911e-01  9.27655185e-01  9.32753087e-01
  9.37572031e-01  9.47286634e-01  9.54833368e-01  9.64159412e-01
  9.67054248e-01  9.69712609e-01  9.73193891e-01  9.79647127e-01
  9.81990096e-01  9.88331059e-01  9.91595682e-01  9.95500993e-01
  1.00035582e+00  1.00662041e+00  1.01102142e+00  1.01259366e+00
  1.01717817e+00  1.02536232e+00  1.03438759e+00  1.03903921e+00
  1.04300899e+00  1.05008856e+00  1.05120135e+00  1.05790349e+00
  1.06137880e+00  1.06975598e+00  1.07591852e+00  1.07841484e+00
  1.08581702e+00  1.09053796e+00  1.09533821e+00  1.10009750e+00
  1.10525876e+00  1.10811374e+00  1.11337611e+00  1.11716996e+00
  1.12817832e+00  1.13054766e+00  1.13700807e+00  1.13965944e+00
  1.14626888e+00  1.15198611e+00  1.15589280e+00  1.15943940e+00
  1.16388571e+00  1.17033682e+00  1.17275973e+00  1.17906287e+00
  1.18342838e+00  1.18916584e+00  1.19501125e+00  1.19905453e+00
  1.20202889e+00  1.20798693e+00  1.21359122e+00  1.21690345e+00
  1.22613442e+00  1.22896747e+00  1.23318065e+00  1.23468619e+00
  1.23798076e+00  1.24408817e+00  1.24907107e+00  1.25258531e+00
  1.25616432e+00  1.26030694e+00  1.26571247e+00  1.26961921e+00
  1.27889299e+00  1.28157895e+00  1.28608228e+00  1.29339691e+00
  1.29587184e+00  1.30088153e+00  1.30947990e+00  1.31370244e+00
  1.31981139e+00  1.32398670e+00  1.32984709e+00  1.33490350e+00
  1.33895316e+00  1.34251934e+00  1.34984177e+00  1.35528164e+00
  1.36072106e+00  1.36250155e+00  1.36610063e+00  1.37447138e+00
  1.38822316e+00  1.39890624e+00  1.40363255e+00  1.40630304e+00
  1.41006840e+00  1.41606492e+00  1.42222570e+00  1.42931098e+00
  1.43098128e+00  1.43626718e+00  1.45123876e+00  1.45605899e+00
  1.47092710e+00  1.47353459e+00  1.47547585e+00  1.48799722e+00
  1.49749705e+00  1.50093754e+00  1.51160354e+00  1.51356744e+00
  1.52615154e+00  1.53531449e+00  1.54592513e+00  1.54749737e+00
  1.55025459e+00  1.55634956e+00  1.56056950e+00  1.56260559e+00
  1.56642708e+00  1.56940799e+00  1.57546910e+00  1.58232272e+00
  1.58399197e+00  1.59186799e+00  1.59712511e+00  1.59904380e+00
  1.60383660e+00  1.60639012e+00  1.60862327e+00  1.61072077e+00
  1.61822147e+00  1.62050701e+00  1.62612572e+00  1.63078023e+00
  1.63154051e+00  1.63543770e+00  1.63913932e+00  1.64092425e+00
  1.64259067e+00  1.65029635e+00  1.65270641e+00  1.65969108e+00
  1.66470621e+00  1.66646618e+00  1.66897341e+00  1.67495036e+00
  1.67864135e+00  1.68164294e+00  1.68195909e+00  1.68880369e+00
  1.69241699e+00  1.69767357e+00  1.70442725e+00  1.70852898e+00
  1.71454511e+00  1.71739772e+00  1.71969298e+00  1.72632282e+00
  1.73211867e+00  1.74338164e+00  1.74866427e+00  1.75128062e+00
  1.75532973e+00  1.76072472e+00  1.76358112e+00  1.76978881e+00
  1.77508459e+00  1.77994740e+00  1.78522085e+00  1.78950485e+00
  1.79543637e+00  1.80503241e+00  1.81173635e+00  1.81562536e+00
  1.82510012e+00  1.82922480e+00  1.83272084e+00  1.83616890e+00
  1.84170696e+00  1.84266359e+00  1.84725969e+00  1.85620186e+00
  1.86222961e+00  1.87061494e+00  1.87264044e+00  1.88356978e+00
  1.88995692e+00  1.89548408e+00  1.89756218e+00  1.90411434e+00
  1.90775127e+00  1.90963526e+00  1.91552079e+00  1.92014997e+00
  1.92551028e+00  1.93011052e+00  1.94124385e+00  1.94633435e+00
  1.95340212e+00  1.96130410e+00  1.96534487e+00  1.96765438e+00
  1.96993997e+00  1.97709851e+00  1.98953548e+00  1.99228149e+00
  1.99469088e+00  2.00042674e+00  2.00629574e+00  2.01521536e+00
  2.02210147e+00  2.02851781e+00  2.03045612e+00  2.03483387e+00
  2.04044305e+00  2.04982878e+00  2.05414055e+00  2.05901973e+00
  2.06298837e+00  2.07020106e+00  2.07623355e+00  2.07912640e+00
  2.08834573e+00  2.09472982e+00  2.09679677e+00  2.10236406e+00
  2.10939404e+00  2.11425800e+00  2.11872083e+00  2.12824409e+00
  2.13399652e+00  2.14211497e+00  2.14825812e+00  2.15315018e+00
  2.15590067e+00  2.16283875e+00  2.16432382e+00  2.16854481e+00
  2.18469374e+00  2.19314450e+00  2.19773207e+00  2.20242597e+00
  2.20543190e+00  2.21020684e+00  2.21531250e+00  2.22314953e+00
  2.22433699e+00  2.22863277e+00  2.24004891e+00  2.24827360e+00
  2.25322475e+00  2.26186869e+00  2.26785664e+00  2.27342207e+00
  2.28570659e+00  2.28952889e+00  2.29596028e+00  2.29939465e+00
  2.30449461e+00  2.30833177e+00  2.31027922e+00  2.31975023e+00
  2.32938473e+00  2.33558700e+00  2.34256497e+00  2.34788877e+00
  2.35159992e+00  2.35860707e+00  2.35893137e+00  2.37042308e+00
  2.37372633e+00  2.38155830e+00  2.38767995e+00  2.38891206e+00
  2.39215155e+00  2.40078600e+00  2.40650285e+00  2.41722877e+00
  2.42088553e+00  2.42393277e+00  2.42924759e+00  2.43027289e+00
  2.43465156e+00  2.44119056e+00  2.44733125e+00  2.45174668e+00
  2.45626660e+00  2.46277973e+00  2.46800507e+00  2.47370048e+00
  2.47506595e+00  2.48274843e+00  2.48951492e+00  2.49189706e+00
  2.49826267e+00  2.50665043e+00  2.51195921e+00  2.51614733e+00
  2.52023505e+00  2.52380429e+00  2.52742515e+00  2.53060266e+00
  2.53498010e+00  2.53644258e+00  2.54502295e+00  2.55135203e+00
  2.55389510e+00  2.56121832e+00  2.56327095e+00  2.56579783e+00
  2.56913922e+00  2.57044106e+00  2.57282696e+00  2.57564102e+00
  2.58236639e+00  2.58453244e+00  2.58756079e+00  2.59211197e+00
  2.59391558e+00  2.59835458e+00  2.60742371e+00  2.61064434e+00
  2.61398266e+00  2.62035361e+00  2.62247847e+00  2.62610678e+00
  2.63076661e+00  2.63857542e+00  2.63958668e+00  2.64151040e+00
  2.64710931e+00  2.64843322e+00  2.65469909e+00  2.65942055e+00
  2.66243183e+00  2.66350120e+00  2.66771823e+00  2.67202895e+00
  2.67655860e+00  2.67781532e+00  2.68126274e+00  2.69212791e+00
  2.69433822e+00  2.69690048e+00  2.70142486e+00  2.70453554e+00
  2.71285815e+00  2.71402199e+00  2.71665561e+00  2.72280697e+00
  2.72446564e+00  2.73445179e+00  2.73671580e+00  2.74476769e+00
  2.74723270e+00  2.75055856e+00  2.75130627e+00  2.75500316e+00
  2.75814263e+00  2.76202197e+00  2.76472455e+00  2.77704025e+00
  2.77772719e+00  2.78575256e+00  2.78990040e+00  2.79295383e+00
  2.79587395e+00  2.79678575e+00  2.80345701e+00  2.80541649e+00
  2.81359423e+00  2.81595010e+00  2.81933969e+00  2.82819391e+00
  2.83026007e+00  2.83923302e+00  2.84794034e+00  2.85224314e+00
  2.85452625e+00  2.85780186e+00  2.87058915e+00  2.87498516e+00
  2.87906091e+00  2.88672011e+00  2.89086073e+00  2.89695844e+00
  2.90023055e+00  2.90679938e+00  2.91300915e+00  2.91691878e+00
  2.92081953e+00  2.92915897e+00  2.93383708e+00  2.94000937e+00
  2.94483206e+00  2.94686163e+00  2.94984238e+00  2.95939156e+00
  2.96828106e+00  2.97749735e+00  2.98480954e+00  2.98833879e+00
  2.99050020e+00  2.99222862e+00  2.99896251e+00  3.01293634e+00
  3.02001763e+00  3.02186194e+00  3.03008924e+00  3.03417133e+00
  3.03820324e+00  3.04996552e+00  3.05336178e+00  3.05596952e+00
  3.05811515e+00  3.06633404e+00  3.07364992e+00  3.07894082e+00
  3.09167912e+00  3.09983954e+00  3.10116089e+00  3.10687592e+00
  3.11368106e+00  3.11837110e+00  3.12259710e+00  3.12381186e+00
  3.13213381e+00  3.13751800e+00  3.14173660e+00  3.14832814e+00
  3.15244349e+00  3.15642685e+00  3.16574393e+00  3.17080773e+00
  3.17217963e+00  3.17604544e+00  3.17789267e+00  3.18304205e+00
  3.18430426e+00  3.19447716e+00  3.20038614e+00  3.20411021e+00
  3.21134066e+00  3.21362168e+00  3.21411134e+00  3.22442265e+00
  3.22548700e+00  3.23274182e+00  3.23362034e+00  3.23943886e+00
  3.24674618e+00  3.25084820e+00  3.25361020e+00  3.26255054e+00
  3.26608988e+00  3.26761920e+00  3.27648162e+00  3.28011314e+00
  3.28341354e+00  3.28699779e+00  3.29051840e+00  3.29320545e+00
  3.29519835e+00  3.29792996e+00  3.30086353e+00  3.30581250e+00
  3.31151152e+00  3.31397391e+00  3.31703875e+00  3.32407923e+00
  3.32590720e+00  3.33128567e+00  3.33730596e+00  3.34075515e+00
  3.34224307e+00  3.35515462e+00  3.35649950e+00  3.36102195e+00
  3.36419942e+00  3.37029565e+00  3.37510915e+00  3.37585374e+00
  3.38365356e+00  3.38584163e+00  3.39224388e+00  3.39528972e+00
  3.39617440e+00  3.40051090e+00  3.40833697e+00  3.41104021e+00
  3.41743239e+00  3.41983155e+00  3.42281263e+00  3.42397097e+00
  3.43118482e+00  3.43991900e+00  3.44339516e+00  3.44619155e+00
  3.44950331e+00  3.45285876e+00  3.45532634e+00  3.46233371e+00
  3.46455773e+00  3.47109441e+00  3.47526123e+00  3.47750068e+00
  3.47955568e+00  3.48880382e+00  3.49377571e+00  3.49774385e+00
  3.50214255e+00  3.50341264e+00  3.51547340e+00  3.51893345e+00
  3.51942411e+00  3.52577217e+00  3.52895699e+00  3.53642468e+00
  3.54098386e+00  3.54435357e+00  3.54919367e+00  3.55184337e+00
  3.55876498e+00  3.56542627e+00  3.56773226e+00  3.57189704e+00
  3.57602357e+00  3.57843599e+00  3.58595350e+00  3.58798693e+00
  3.59826847e+00  3.60405128e+00  3.61025605e+00  3.61763176e+00
  3.61938762e+00  3.62033197e+00  3.62720696e+00  3.62811519e+00
  3.63744268e+00  3.64645780e+00  3.65101519e+00  3.65464910e+00
  3.66092009e+00  3.66478399e+00  3.66985769e+00  3.67471564e+00
  3.67683240e+00  3.68662350e+00  3.69257939e+00  3.69943229e+00
  3.70142331e+00  3.70974104e+00  3.71356770e+00  3.71565310e+00
  3.72809369e+00  3.73305025e+00  3.73835187e+00  3.74250332e+00
  3.75555121e+00  3.75923150e+00  3.76410782e+00  3.77372287e+00
  3.77476129e+00  3.78214652e+00  3.78964032e+00  3.79411390e+00
  3.80528013e+00  3.80678366e+00  3.80907479e+00  3.81776283e+00
  3.82827402e+00  3.83133999e+00  3.83933647e+00  3.85549955e+00
  3.86806751e+00  3.87008412e+00  3.88505988e+00  3.88970838e+00
  3.90492134e+00  3.90723630e+00  3.91911076e+00  3.92276741e+00
  3.93609039e+00  3.94384379e+00  3.94975544e+00  3.95353227e+00
  3.96739233e+00  3.97219318e+00  3.97838347e+00  3.98131767e+00
  3.98204076e+00  3.98313367e+00  4.00140145e+00  4.00637652e+00
  4.01059782e+00  4.01995612e+00  4.02786270e+00  4.03114867e+00
  4.03272907e+00  4.03517794e+00  4.04419347e+00  4.05212791e+00
  4.05822586e+00  4.06209050e+00  4.06603559e+00  4.07394493e+00
  4.07897297e+00  4.08003364e+00  4.09170790e+00  4.09753883e+00
  4.10219755e+00  4.10740457e+00  4.11177223e+00  4.11621644e+00
  4.12835568e+00  4.13778528e+00  4.14011963e+00  4.14385740e+00
  4.15887830e+00  4.16375832e+00  4.17117170e+00  4.18021392e+00
  4.18363970e+00  4.19076157e+00  4.20227804e+00  4.21373144e+00
  4.21581684e+00  4.22608481e+00  4.22817673e+00  4.23469437e+00
  4.23647269e+00  4.24895602e+00  4.26195568e+00  4.27156806e+00
  4.27417157e+00  4.28571994e+00  4.28704034e+00  4.30784172e+00
  4.31943646e+00  4.33038562e+00  4.34006566e+00  4.34590848e+00
  4.34860765e+00  4.36799889e+00  4.37482204e+00  4.38619278e+00
  4.39077663e+00  4.39524731e+00  4.39763529e+00  4.40603904e+00
  4.41394598e+00  4.41819397e+00  4.43040333e+00  4.44589703e+00
  4.45142631e+00  4.45473865e+00  4.46283860e+00  4.47941283e+00
  4.48522932e+00  4.49157341e+00  4.50297169e+00  4.50393841e+00
  4.51155177e+00  4.52002815e+00  4.52641235e+00  4.53171637e+00
  4.53793104e+00  4.54112891e+00  4.54754822e+00  4.55453577e+00
  4.56249051e+00  4.57745395e+00  4.58381629e+00  4.60004256e+00
  4.60433186e+00  4.61031881e+00  4.61807318e+00  4.62767983e+00
  4.64971865e+00  4.65529347e+00  4.66503052e+00  4.67841657e+00
  4.68497699e+00  4.70071698e+00  4.71525531e+00  4.72274320e+00
  4.73188794e+00  4.74368192e+00  4.75760074e+00  4.76770687e+00
  4.78568052e+00  4.80021600e+00  4.80454787e+00  4.81923040e+00
  4.82475841e+00  4.83556175e+00  4.84305282e+00  4.85914117e+00
  4.87237923e+00  4.87779673e+00  4.88284254e+00  4.90465938e+00
  4.91860324e+00  4.92658830e+00  4.94553505e+00  4.95319468e+00
  4.97486883e+00  4.98285375e+00  5.01080166e+00  5.02130212e+00
  5.03151760e+00  5.03820229e+00  5.05262654e+00  5.08247826e+00
  5.09949060e+00  5.13021355e+00  5.15112700e+00  5.15846536e+00
  5.19412417e+00  5.21257750e+00  5.23047450e+00  5.25888369e+00
  5.28879188e+00  5.30166775e+00  5.31730404e+00  5.35247025e+00
  5.38394978e+00  5.40716435e+00  5.42520702e+00  5.51962415e+00
  5.53166243e+00  5.59541597e+00  5.62483633e+00  5.75394020e+00
  5.82159519e+00  5.96248323e+00  6.27961390e+00  6.54041369e+00
  6.79993197e+00  6.87697033e+00  7.02850746e+00  7.19975728e+00
  2.23645458e+01  2.23882446e+01  2.24145419e+01  2.24764407e+01
  2.25216259e+01  2.25305713e+01  2.25364240e+01  2.25728149e+01
  2.25848486e+01  2.25901026e+01  2.25972116e+01  2.26027991e+01
  2.26078479e+01  2.26295448e+01  2.26347277e+01  2.26581865e+01
  2.26687333e+01  2.26736405e+01  2.26803013e+01  2.27668031e+01
  2.27951258e+01  2.28426585e+01  2.29202503e+01  2.29898235e+01
  2.30647191e+01  2.31651059e+01  2.32788036e+01  4.41825580e+01]
nelec by numeric integration = 213.9997053596309
    CPU time for vxc    245.73 sec, wall time     16.39 sec
    CPU time for df vj and vk   1142.06 sec, wall time     87.69 sec
E1 = -6827.411615259905  Ecoul = 3203.138250038127  Exc = -170.29532806230682
Extra cycle  E= -1129.59524220589  delta_E=    0  |g|= 5.62e-07  |ddm|= 9.45e-07
    CPU time for scf_cycle   9314.54 sec, wall time    742.97 sec
    CPU time for SCF   9314.55 sec, wall time    742.97 sec
converged SCF energy = -1129.59524220589
SCF Done after  742.9721 seconds
after SCF memory used: 15330.98046875 MB
Converting <class 'pyscf.df.df_jk.density_fit.<locals>.DFHF'> to RHF
Converting <class 'pyscf.df.df_jk.density_fit.<locals>.DFHF'> to RHF
a_x = 0.25
beta = 0.6575
alpha = 1.54
hdiag (109675,)
n_occ =  107
n_vir =  1025
max_vir =  321
Q-Gamma tensors building time = 31.0336
after Q matrix memory used: 16340.02734375 MB
-------------------------------------------------------------------
|---------------   In-house Developed Davidson Starts   -----------|
Residual conv = 1e-05
Number of excited states = 1
Initial guess:   sTDA
Preconditioner:  sTDA
A matrix size =  109675 * 109675
sTDA nstate = 2
sTDA A diagonalization: threshold = 0.001 ; in 3 steps  0.9944 seconds
sTDA excitation energies:
[4.29567537 4.97674823]
Intial guess time: 1.0156 seconds
    CPU time for df vj and vk   2259.04 sec, wall time    163.97 sec
Iteration  0
subspace size:  2
maximum residual norm 0.08582300618677599
sTDA Preconditioning Done after  5 steps;  0.5956 seconds
subgencost 0.0227 3.81 %
mvcost 0.429 72.02 %
GScost 0.0126 2.12 %
subcost 0.0024 0.4 %
m,new_m 2 3
    CPU time for df vj and vk   1135.42 sec, wall time     87.06 sec
new generated guesses: 1
Iteration  1
subspace size:  3
maximum residual norm 0.019508101072050924
sTDA Preconditioning Done after  6 steps;  0.8479 seconds
subgencost 0.0256 3.02 %
mvcost 0.6366 75.08 %
GScost 0.023 2.71 %
subcost 0.0031 0.37 %
m,new_m 3 4
    CPU time for df vj and vk   1126.74 sec, wall time     86.04 sec
new generated guesses: 1
Iteration  2
subspace size:  4
maximum residual norm 0.007720050013824828
sTDA Preconditioning Done after  5 steps;  0.5896 seconds
subgencost 0.0145 2.46 %
mvcost 0.4137 70.16 %
GScost 0.0111 1.88 %
subcost 0.002 0.34 %
m,new_m 4 5
    CPU time for df vj and vk   1127.96 sec, wall time     85.42 sec
new generated guesses: 1
Iteration  3
subspace size:  5
maximum residual norm 0.0016900281117221397
sTDA Preconditioning Done after  6 steps;  0.6492 seconds
subgencost 0.0177 2.73 %
mvcost 0.4574 70.45 %
GScost 0.0147 2.27 %
subcost 0.0026 0.41 %
m,new_m 5 6
    CPU time for df vj and vk   1134.93 sec, wall time     85.96 sec
new generated guesses: 1
Iteration  4
subspace size:  6
maximum residual norm 0.0003852924091361777
sTDA Preconditioning Done after  5 steps;  0.6889 seconds
subgencost 0.0217 3.16 %
mvcost 0.5045 73.23 %
GScost 0.0167 2.42 %
subcost 0.0025 0.37 %
m,new_m 6 7
    CPU time for df vj and vk   1140.85 sec, wall time     87.85 sec
new generated guesses: 1
Iteration  5
subspace size:  7
maximum residual norm 8.517856662290973e-05
sTDA Preconditioning Done after  6 steps;  0.6676 seconds
subgencost 0.021 3.14 %
mvcost 0.5116 76.64 %
GScost 0.0166 2.49 %
subcost 0.0025 0.38 %
m,new_m 7 8
    CPU time for df vj and vk   1126.74 sec, wall time     84.69 sec
new generated guesses: 1
Iteration  6
subspace size:  8
maximum residual norm 1.830683754318479e-05
sTDA Preconditioning Done after  6 steps;  0.7264 seconds
subgencost 0.0262 3.6 %
mvcost 0.5572 76.71 %
GScost 0.0195 2.68 %
subcost 0.0027 0.38 %
m,new_m 8 9
    CPU time for df vj and vk   1144.63 sec, wall time     90.79 sec
new generated guesses: 1
Iteration  7
subspace size:  9
maximum residual norm 4.16604851209404e-06
Davidson procedure aborted
Davidson done after  981.6333 seconds
Total steps = 8
Final subspace shape =  (9, 9)
Preconditioning time: 4.7769 0.49 %
In-house Davidson time: 981.647 seconds
Excited State energies (eV) =
[4.52830278]
|---------------   In-house Developed Davidson Done   -----------|
-------------------------------------------------------------------
|---------------   In-house Developed Davidson Starts   -----------|
Residual conv = 1e-05
Number of excited states = 1
Initial guess:   Adiag
Preconditioner:  Adiag
A matrix size =  109675 * 109675
Intial guess time: 0.0176 seconds
    CPU time for df vj and vk   2249.27 sec, wall time    165.69 sec
Iteration  0
subspace size:  2
maximum residual norm 0.11502335912773888
m,new_m 2 3
    CPU time for df vj and vk   1146.41 sec, wall time     86.48 sec
new generated guesses: 1
Iteration  1
subspace size:  3
maximum residual norm 0.039330634987629606
m,new_m 3 4
    CPU time for df vj and vk   1138.33 sec, wall time     88.38 sec
new generated guesses: 1
Iteration  2
subspace size:  4
maximum residual norm 0.012449424028989685
m,new_m 4 5
    CPU time for df vj and vk   1124.93 sec, wall time     85.22 sec
new generated guesses: 1
Iteration  3
subspace size:  5
maximum residual norm 0.0044312275826013615
m,new_m 5 6
    CPU time for df vj and vk   1128.84 sec, wall time     85.56 sec
new generated guesses: 1
Iteration  4
subspace size:  6
maximum residual norm 0.002591015198708865
m,new_m 6 7
    CPU time for df vj and vk   1136.52 sec, wall time     86.26 sec
new generated guesses: 1
Iteration  5
subspace size:  7
maximum residual norm 0.0014606543003794297
m,new_m 7 8
    CPU time for df vj and vk   1143.62 sec, wall time     86.26 sec
new generated guesses: 1
Iteration  6
subspace size:  8
maximum residual norm 0.0005318591055077328
m,new_m 8 9
    CPU time for df vj and vk   1157.33 sec, wall time     87.89 sec
new generated guesses: 1
Iteration  7
subspace size:  9
maximum residual norm 0.00018740155572933456
m,new_m 9 10
    CPU time for df vj and vk   1131.13 sec, wall time     84.82 sec
new generated guesses: 1
Iteration  8
subspace size:  10
maximum residual norm 6.142440019415735e-05
m,new_m 10 11
    CPU time for df vj and vk   1123.12 sec, wall time     84.48 sec
new generated guesses: 1
Iteration  9
subspace size:  11
maximum residual norm 1.851631290907169e-05
m,new_m 11 12
    CPU time for df vj and vk   1147.03 sec, wall time     87.10 sec
new generated guesses: 1
Iteration  10
subspace size:  12
maximum residual norm 6.36299838300486e-06
Davidson procedure aborted
Davidson done after  1304.8494 seconds
Total steps = 11
Final subspace shape =  (12, 12)
Preconditioning time: 0.0301 0.0 %
In-house Davidson time: 1304.8617 seconds
Excited State energies (eV) =
[4.52830278]
|---------------   In-house Developed Davidson Done   -----------|
xyzfile = 72_Vitamin_D3.xyz
checkfile = True
method = RKS
functional = pbe0
basis_set = def2-tzvp
density_fit = True
grid_level = 3
nstates = 1
pytd = False
TDA = True
TDDFT = False
dynpol = False
dynpol_omega = []
stapol = False
sTDA = False
sTDDFT = False
Truncate_test = False
truncate_virtual = 40.0
TDA_options = [0, 1]
TDDFT_options = [0]
dynpol_options = [0]
stapol_options = [0]
TDA_tolerance = 1e-05
TDDFT_tolerance = 1e-05
dynpol_tolerance = 1e-05
stapol_tolerance = 1e-05
max = 35
TDA_initialTOL = 0.001
TDDFT_initialTOL = 0.001
dynpol_initprecTOL = 0.01
stapol_initprecTOL = 0.01
TDA_precondTOL = 0.01
TDDFT_precondTOL = 0.01
TDA_extrainitial = 8
TDDFT_extrainitial = 8
TDDFT_extrainitial_3n = False
eigensolver_tol = 1e-05
memory = 50000
verbose = 5
beta = []
alpha = []
