curpath /scratch/pbsjobs/job.16219509.hpc
lib.num_threads() =  20
at beginning memory used: 0.05 GB
mol.max_memory 50000


System: uname_result(system='Linux', node='compt261', release='3.10.0-1127.el7.x86_64', version='#1 SMP Tue Feb 18 16:39:12 EST 2020', machine='x86_64', processor='x86_64')  Threads 20
Python 3.7.0 (default, Aug 23 2018, 14:24:33) 
[GCC 6.3.0]
numpy 1.18.1  scipy 1.4.1
Date: Mon Aug 30 18:03:21 2021
PySCF version 1.7.4
PySCF path  /home/zzz6/.local/lib/python3.7/site-packages/pyscf

[CONFIG] conf_file None
[INPUT] verbose = 5
[INPUT] max_memory = 50000 
[INPUT] num. atoms = 37
[INPUT] num. electrons = 172
[INPUT] charge = 0
[INPUT] spin (= nelec alpha-beta = 2S) = 0
[INPUT] symmetry False subgroup None
[INPUT] Mole.unit = angstrom
[INPUT]  1 O      0.666740590510  -0.791215698749   2.172872659707 AA    1.259957112195  -1.495180976092   4.106134230401 Bohr
[INPUT]  2 C      1.322040583382  -1.749471885859   1.803729290307 AA    2.498294628152  -3.306022726900   3.408554361536 Bohr
[INPUT]  3 O      1.813471129608  -2.667226846278   2.680020481428 AA    3.426963769764  -5.040328251553   5.064504718124 Bohr
[INPUT]  4 C      1.679097867456  -2.060833813900   0.389157760329 AA    3.173035105833  -3.894411496514   0.735401586271 Bohr
[INPUT]  5 C      2.451265776756  -3.199358973792   0.081588199935 AA    4.632220976589  -6.045912234637   0.154179352873 Bohr
[INPUT]  6 C      2.807169466744  -3.484858118230  -1.239822885053 AA    5.304781477388  -6.585427426423  -2.342925695718 Bohr
[INPUT]  7 C      2.395828932868  -2.627019372227  -2.269777180389 AA    4.527460524430  -4.964347137436  -4.289257234723 Bohr
[INPUT]  8 C      1.628757485618  -1.492523527497  -1.974241765276 AA    3.077905571154  -2.820460701439  -3.730776240050 Bohr
[INPUT]  9 C      1.258629999217  -1.191845834292  -0.650366123654 AA    2.378465990682  -2.252262209516  -1.229013854401 Bohr
[INPUT] 10 C      0.422112772895   0.020970265372  -0.409385536184 AA    0.797677534452   0.039628058312  -0.773626542746 Bohr
[INPUT] 11 C     -1.006953610338  -0.121698966704  -0.276075075338 AA   -1.902866543682  -0.229977716712  -0.521706282208 Bohr
[INPUT] 12 C     -1.689708288380  -1.363615310352  -0.310941548487 AA   -3.193085895446  -2.576859475829  -0.587594367388 Bohr
[INPUT] 13 C     -3.067715646075  -1.441643482248  -0.160194738985 AA   -5.797142399125  -2.724311350713  -0.302724183279 Bohr
[INPUT] 14 C     -3.817218270273  -0.256822830310   0.032814465577 AA   -7.213497088501  -0.485324811821   0.062010352864 Bohr
[INPUT] 15 O     -5.161746423755  -0.389871734496   0.176829760070 AA   -9.754287065351  -0.736750801908   0.334159817205 Bohr
[INPUT] 16 C     -3.176663080910   0.991081248979   0.066717260966 AA   -6.003023212938   1.872872127762   0.126077351006 Bohr
[INPUT] 17 C     -1.786572512967   1.048411842688  -0.087062865401 AA   -3.376132751183   1.981211248431  -0.164524971227 Bohr
[INPUT] 18 O     -1.219516690603   2.282891893842  -0.049453052309 AA   -2.304552549576   4.314040451350  -0.093452724887 Bohr
[INPUT] 19 C      0.142770733308   2.453946636741  -0.198456908590 AA    0.269797584555   4.637287067738  -0.375029204764 Bohr
[INPUT] 20 C      0.632508552333   3.730450189827  -0.160332649074 AA    1.195267935354   7.049529180105  -0.302984795576 Bohr
[INPUT] 21 C      2.065063779068   3.993345863016  -0.302255204940 AA    3.902404972199   7.546330001764  -0.571179557060 Bohr
[INPUT] 22 O      2.546524187329   5.137841052294  -0.276573276743 AA    4.812233283633   9.709112460384  -0.522647746417 Bohr
[INPUT] 23 C      2.919775017453   2.797399582709  -0.477743652489 AA    5.517575128333   5.286319072292  -0.902804660954 Bohr
[INPUT] 24 C      2.409510508284   1.534030048844  -0.515002651161 AA    4.553314954918   2.898896659168  -0.973213964119 Bohr
[INPUT] 25 C      0.989237696180   1.287980950399  -0.386627277036 AA    1.869388317877   2.433931249911  -0.730619665885 Bohr
[INPUT] 26 H      1.527194163164  -2.361985637399   3.566021422602 AA    2.885978707415  -4.463505964840   6.738803843050 Bohr
[INPUT] 27 H      2.770480321527  -3.852259473000   0.897455221482 AA    5.235449041183  -7.279715364731   1.695944577662 Bohr
[INPUT] 28 H      3.407243770280  -4.371960667584  -1.465573535589 AA    6.438757565460  -8.261808289104  -2.769532597673 Bohr
[INPUT] 29 H      2.672481515034  -2.839135805082  -3.307734142464 AA    5.050258136376  -5.365189102051  -6.250711622130 Bohr
[INPUT] 30 H      1.305569214640  -0.821223006569  -2.775920806539 AA    2.467168252334  -1.551886569608  -5.245730067841 Bohr
[INPUT] 31 H     -1.107083404541  -2.277771481244  -0.459385186204 AA   -2.092084431633  -4.304364273896  -0.868112187608 Bohr
[INPUT] 32 H     -3.594289122312  -2.398994852366  -0.185755845299 AA   -6.792222053673  -4.533443245214  -0.351027673652 Bohr
[INPUT] 33 H     -5.557845874926   0.491260843791   0.304986242971 AA  -10.502806546155   0.928348450487   0.576340470975 Bohr
[INPUT] 34 H     -3.732931303246   1.922544817620   0.211889719213 AA   -7.054217804951   3.633083167504   0.400413537924 Bohr
[INPUT] 35 H     -0.039776660295   4.580112597621  -0.018106740305 AA   -0.075166994108   8.655158429174  -0.034216780185 Bohr
[INPUT] 36 H      3.994093357522   2.984917056487  -0.574002072313 AA    7.547742561662   5.640675741303  -1.084706711604 Bohr
[INPUT] 37 H      3.065753467443   0.666652427952  -0.641491764765 AA    5.793434418904   1.259790509105  -1.212243746569 Bohr
[INPUT] ---------------- BASIS SET ---------------- 
[INPUT] l, kappa, [nprim/nctr], expnt,             c_1 c_2 ...
[INPUT] H
[INPUT] 0    0    [3    /1   ]  34.061341         0.0060251978
                                5.1235746         0.045021094
                                1.1646626         0.20189726
[INPUT] 0    0    [1    /1   ]  0.32723041           1
[INPUT] 0    0    [1    /1   ]  0.10307241           1
[INPUT] 1    0    [1    /1   ]  0.8                  1
[INPUT] C
[INPUT] 0    0    [6    /1   ]  13575.349682      0.00022245814352
                                2035.233368       0.0017232738252
                                463.22562359      0.0089255715314
                                131.20019598      0.035727984502
                                42.853015891      0.11076259931
                                15.584185766      0.24295627626
[INPUT] 0    0    [2    /1   ]  6.2067138508      0.41440263448
                                2.5764896527      0.23744968655
[INPUT] 0    0    [1    /1   ]  0.57696339419        1
[INPUT] 0    0    [1    /1   ]  0.22972831358        1
[INPUT] 0    0    [1    /1   ]  0.095164440028       1
[INPUT] 1    0    [4    /1   ]  34.697232244      0.0053333657805
                                7.9582622826      0.035864109092
                                2.3780826883      0.14215873329
                                0.81433208183     0.34270471845
[INPUT] 1    0    [1    /1   ]  0.28887547253        1
[INPUT] 1    0    [1    /1   ]  0.10056823671        1
[INPUT] 2    0    [1    /1   ]  1.097                1
[INPUT] 2    0    [1    /1   ]  0.318                1
[INPUT] 3    0    [1    /1   ]  0.761                1
[INPUT] O
[INPUT] 0    0    [6    /1   ]  27032.382631      0.00021726302465
                                4052.3871392      0.0016838662199
                                922.3272271       0.0087395616265
                                261.24070989      0.035239968808
                                85.354641351      0.11153519115
                                31.035035245      0.25588953961
[INPUT] 0    0    [2    /1   ]  12.260860728      0.39768730901
                                4.9987076005      0.2462784943
[INPUT] 0    0    [1    /1   ]  1.1703108158         1
[INPUT] 0    0    [1    /1   ]  0.46474740994        1
[INPUT] 0    0    [1    /1   ]  0.18504536357        1
[INPUT] 1    0    [4    /1   ]  63.274954801      0.0060685103418
                                14.627049379      0.041912575824
                                4.4501223456      0.16153841088
                                1.5275799647      0.35706951311
[INPUT] 1    0    [1    /1   ]  0.52935117943        1
[INPUT] 1    0    [1    /1   ]  0.1747842127         1
[INPUT] 2    0    [1    /1   ]  2.314                1
[INPUT] 2    0    [1    /1   ]  0.645                1
[INPUT] 3    0    [1    /1   ]  1.428                1

nuclear repulsion = 2066.44084815727
number of shells = 323
number of NR pGTOs = 1246
number of NR cGTOs = 847
basis = def2-tzvp
ecp = {}
CPU time:         2.83
RKS
Density fitting turned on
Molecule built
Calculating SCF Energy...


******** <class 'pyscf.df.df_jk.density_fit.<locals>.DFHF'> ********
method = DFHF-RKS-RHF
initial guess = chkfile
damping factor = 0
level_shift factor = 0
DIIS = <class 'pyscf.scf.diis.CDIIS'>
diis_start_cycle = 1
diis_space = 8
SCF conv_tol = 1e-10
SCF conv_tol_grad = None
SCF max_cycles = 50
direct_scf = True
direct_scf_tol = 1e-13
chkfile to save SCF result = 37_Fluorescein_pbe0.chk
max_memory 50000 MB (current use 55 MB)
XC functionals = pbe0
small_rho_cutoff = 1e-07
radial grids: 
    Treutler-Ahlrichs [JCP 102, 346 (1995); DOI:10.1063/1.469408] (M4) radial grids
    
becke partition: Becke, JCP 88, 2547 (1988); DOI:10.1063/1.454033
pruning grids: <function nwchem_prune at 0x7f4bef489e18>
grids dens level: 3
symmetrized grids: False
atomic radii adjust function: <function treutler_atomic_radii_adjust at 0x7f4bef489d90>
Set gradient conv threshold to 1e-05
atom O rad-grids = 75, ang-grids = [ 50  50  50  50  50  50  50  50  50  50  50  50  50  50  50  50  50  50
  50  50  50  50  86  86  86  86  86  86  86  86  86 266 266 266 266 266
 266 266 302 302 302 302 302 302 302 302 302 302 302 302 302 302 302 302
 302 302 302 266 266 266 266 266 266 266 266 266 266 266 266 266 266 266
 266 266 266]
atom C rad-grids = 75, ang-grids = [ 50  50  50  50  50  50  50  50  50  50  50  50  50  50  50  50  50  50
  50  50  50  50  50  86  86  86  86  86  86  86  86  86  86 266 266 266
 266 266 266 266 302 302 302 302 302 302 302 302 302 302 302 302 302 302
 302 302 302 302 302 302 266 266 266 266 266 266 266 266 266 266 266 266
 266 266 266]
atom H rad-grids = 50, ang-grids = [ 50  50  50  50  50  50  50  50  50  50  50  50  50  50  86  86  86  86
 266 266 266 266 302 302 302 302 302 302 302 302 302 302 302 302 302 266
 266 266 266 266 266 266 266 266 266 266 266 266 266 266]
tot grids = 469638
Drop grids 81964
    CPU time for setting up grids     70.73 sec, wall time      3.83 sec
nelec by numeric integration = 172.0001527571057
    CPU time for vxc    109.44 sec, wall time      6.29 sec
******** <class 'pyscf.df.df.DF'> ********
auxbasis = None
max_memory = 50000
_cderi_to_save = /tmp/job.16219509.hpc/tmp49vc1r6z
Default auxbasis def2-tzvp-jkfit is used for H def2-tzvp
Default auxbasis def2-tzvp-jkfit is used for C def2-tzvp
Default auxbasis def2-tzvp-jkfit is used for O def2-tzvp
num shells = 697, num cGTOs = 2101
size of aux basis 2101
int3c2e [1/1], AO [0:323], nrow = 359128
    CPU time for cholesky_eri    109.93 sec, wall time     16.39 sec
    CPU time for df vj and vk    352.11 sec, wall time     31.49 sec
E1 = -5665.799218402045  Ecoul = 2609.392052583612  Exc = -154.64710851412406
init E= -1144.61342617529
cond(S) = 1765310.6743267889
    CPU time for initialize scf    538.39 sec, wall time     42.05 sec
  HOMO = -0.216364504412508  LUMO = -0.0913041392443766
  mo_energy =
[-1.92869727e+01 -1.92725884e+01 -1.92656824e+01 -1.92130946e+01
 -1.91538931e+01 -1.03780640e+01 -1.03248373e+01 -1.03216812e+01
 -1.03125441e+01 -1.02871679e+01 -1.02853275e+01 -1.02835614e+01
 -1.02785621e+01 -1.02673261e+01 -1.02668101e+01 -1.02642123e+01
 -1.02626621e+01 -1.02621183e+01 -1.02619197e+01 -1.02593084e+01
 -1.02517860e+01 -1.02461754e+01 -1.02456996e+01 -1.02295996e+01
 -1.02176642e+01 -1.15241878e+00 -1.14619756e+00 -1.11821807e+00
 -1.06036096e+00 -1.02196746e+00 -9.27636785e-01 -9.04209585e-01
 -8.89811189e-01 -8.40442391e-01 -8.17468017e-01 -8.10030524e-01
 -7.97603536e-01 -7.71433064e-01 -7.62420705e-01 -7.10771496e-01
 -6.88542854e-01 -6.79934257e-01 -6.72606971e-01 -6.48414826e-01
 -6.30251538e-01 -6.16010359e-01 -6.01722167e-01 -5.72634901e-01
 -5.64656155e-01 -5.52430438e-01 -5.39890382e-01 -5.26821811e-01
 -5.15357692e-01 -5.12570682e-01 -5.02169033e-01 -4.92583950e-01
 -4.89809006e-01 -4.86966862e-01 -4.82729161e-01 -4.71943295e-01
 -4.63561178e-01 -4.62124831e-01 -4.48577284e-01 -4.45731011e-01
 -4.37101418e-01 -4.35472351e-01 -4.23294861e-01 -4.08063022e-01
 -4.06247111e-01 -4.02754153e-01 -4.01150640e-01 -3.94871746e-01
 -3.91900440e-01 -3.80402682e-01 -3.79087871e-01 -3.59309786e-01
 -3.53287812e-01 -3.52843176e-01 -3.16014902e-01 -3.01899864e-01
 -2.97194250e-01 -2.91866104e-01 -2.81762430e-01 -2.57327004e-01
 -2.41474537e-01 -2.16364504e-01 -9.13041392e-02 -7.62348654e-02
 -4.35129766e-02 -2.57335994e-02 -1.04139484e-02  4.41221882e-03
  2.20645015e-02  3.13292382e-02  3.23356178e-02  4.72915319e-02
  5.13600459e-02  5.63994609e-02  6.98736361e-02  7.27990030e-02
  8.08711905e-02  8.58883432e-02  9.75718545e-02  1.01247885e-01
  1.09819430e-01  1.13271444e-01  1.21604275e-01  1.26422105e-01
  1.30061751e-01  1.32569940e-01  1.39144012e-01  1.50254262e-01
  1.63169557e-01  1.69527727e-01  1.73626882e-01  1.80719047e-01
  1.87242782e-01  1.88928272e-01  1.92268993e-01  1.94770153e-01
  1.96205729e-01  2.00558061e-01  2.03870060e-01  2.14375191e-01
  2.16353087e-01  2.20795428e-01  2.23088837e-01  2.28570627e-01
  2.31243852e-01  2.35768741e-01  2.39236360e-01  2.46680272e-01
  2.51785816e-01  2.54367696e-01  2.57028466e-01  2.66355979e-01
  2.69094215e-01  2.69704713e-01  2.75955849e-01  2.79191606e-01
  2.86929830e-01  2.91026500e-01  2.99668364e-01  3.01485415e-01
  3.06111288e-01  3.14341040e-01  3.18290004e-01  3.23005055e-01
  3.28448875e-01  3.33854243e-01  3.34476345e-01  3.38988834e-01
  3.40876194e-01  3.43043870e-01  3.47354784e-01  3.52206017e-01
  3.54158620e-01  3.57212814e-01  3.62203245e-01  3.64643800e-01
  3.67135208e-01  3.68097697e-01  3.73882243e-01  3.80104192e-01
  3.85581474e-01  3.90214794e-01  3.98622049e-01  4.01021443e-01
  4.05081843e-01  4.10552669e-01  4.18336300e-01  4.23369311e-01
  4.24605796e-01  4.27341776e-01  4.33711743e-01  4.38769913e-01
  4.40989600e-01  4.43399854e-01  4.46972800e-01  4.53330418e-01
  4.55690270e-01  4.56629700e-01  4.62162969e-01  4.67641192e-01
  4.71258772e-01  4.78107018e-01  4.79992454e-01  4.85174595e-01
  4.89480132e-01  4.94059759e-01  4.99764382e-01  5.02800695e-01
  5.08292419e-01  5.10831167e-01  5.20357673e-01  5.23458560e-01
  5.35584574e-01  5.38429430e-01  5.40760173e-01  5.46174812e-01
  5.50521071e-01  5.60543827e-01  5.64434640e-01  5.71738394e-01
  5.75062578e-01  5.85991176e-01  5.95147849e-01  6.05658230e-01
  6.11070044e-01  6.24547751e-01  6.26038765e-01  6.31501293e-01
  6.43232871e-01  6.43940002e-01  6.47946392e-01  6.55663990e-01
  6.59466040e-01  6.62449211e-01  6.65447835e-01  6.67293202e-01
  6.69188756e-01  6.71914534e-01  6.77980551e-01  6.81467556e-01
  6.90549102e-01  6.93977024e-01  7.00464155e-01  7.02844953e-01
  7.06409166e-01  7.17945381e-01  7.22045604e-01  7.30429031e-01
  7.33443709e-01  7.34997502e-01  7.45730078e-01  7.48962833e-01
  7.54772144e-01  7.55281092e-01  7.60675320e-01  7.66992258e-01
  7.75604551e-01  7.77792625e-01  7.83218146e-01  7.87160975e-01
  7.91292077e-01  7.93182036e-01  8.06220613e-01  8.13032889e-01
  8.15136835e-01  8.22293926e-01  8.26452380e-01  8.35508642e-01
  8.39349525e-01  8.45156372e-01  8.48663116e-01  8.64198837e-01
  8.66037020e-01  8.70659562e-01  8.75857689e-01  8.76356404e-01
  8.84623956e-01  8.89391630e-01  8.94916506e-01  9.01020433e-01
  9.02384950e-01  9.12464260e-01  9.17726323e-01  9.27212495e-01
  9.29128921e-01  9.38500073e-01  9.46441578e-01  9.56086472e-01
  9.65296842e-01  9.80039485e-01  9.91404226e-01  1.00097936e+00
  1.01141990e+00  1.01528239e+00  1.02093068e+00  1.02772221e+00
  1.03305444e+00  1.04253466e+00  1.05267395e+00  1.07379649e+00
  1.07805355e+00  1.08169361e+00  1.09228533e+00  1.09992969e+00
  1.10430952e+00  1.11140202e+00  1.11630347e+00  1.12388802e+00
  1.12878247e+00  1.13368168e+00  1.14028693e+00  1.15339131e+00
  1.15498105e+00  1.17608385e+00  1.17863260e+00  1.19181883e+00
  1.19327927e+00  1.21016118e+00  1.21852982e+00  1.22209632e+00
  1.22661707e+00  1.23375095e+00  1.23896874e+00  1.24428694e+00
  1.24862142e+00  1.25434889e+00  1.25843063e+00  1.27058381e+00
  1.28225139e+00  1.29668872e+00  1.30200710e+00  1.30616109e+00
  1.31630177e+00  1.31933133e+00  1.32600780e+00  1.33069056e+00
  1.33753170e+00  1.34436973e+00  1.37026487e+00  1.37533090e+00
  1.38679829e+00  1.39256354e+00  1.40108647e+00  1.40911193e+00
  1.41286875e+00  1.41896073e+00  1.42664299e+00  1.43767663e+00
  1.44883554e+00  1.45560744e+00  1.46179217e+00  1.46501439e+00
  1.47565731e+00  1.47773141e+00  1.48426078e+00  1.49574616e+00
  1.49769984e+00  1.50297180e+00  1.50957584e+00  1.51471464e+00
  1.52956055e+00  1.53432052e+00  1.53867620e+00  1.54519715e+00
  1.55798377e+00  1.56174689e+00  1.56754290e+00  1.57760074e+00
  1.58651583e+00  1.59266250e+00  1.60173721e+00  1.60627328e+00
  1.60972679e+00  1.61648716e+00  1.62964500e+00  1.63532485e+00
  1.64079241e+00  1.64752341e+00  1.65276258e+00  1.65542961e+00
  1.66588769e+00  1.66829020e+00  1.66934199e+00  1.68041111e+00
  1.68331946e+00  1.68749086e+00  1.69536919e+00  1.70426058e+00
  1.71132313e+00  1.72476263e+00  1.73114226e+00  1.73736032e+00
  1.73856524e+00  1.74543753e+00  1.75296655e+00  1.75890152e+00
  1.76813069e+00  1.77695153e+00  1.80030248e+00  1.80801565e+00
  1.82013027e+00  1.82584940e+00  1.83101862e+00  1.83666820e+00
  1.84568243e+00  1.85472554e+00  1.86355936e+00  1.86548480e+00
  1.87285495e+00  1.88710888e+00  1.89176884e+00  1.89592641e+00
  1.90537939e+00  1.91695270e+00  1.92215838e+00  1.92584793e+00
  1.94755011e+00  1.95857349e+00  1.96482288e+00  1.97800036e+00
  1.97932408e+00  1.99784506e+00  2.00261751e+00  2.00721525e+00
  2.01604119e+00  2.02937041e+00  2.03867141e+00  2.03985676e+00
  2.04868189e+00  2.05704943e+00  2.06873409e+00  2.07460759e+00
  2.09020330e+00  2.09564204e+00  2.09767225e+00  2.10282125e+00
  2.11194320e+00  2.11820250e+00  2.12479570e+00  2.13604766e+00
  2.14374118e+00  2.15044577e+00  2.15841485e+00  2.16326025e+00
  2.17163777e+00  2.18628984e+00  2.19542541e+00  2.19740789e+00
  2.20640208e+00  2.21252035e+00  2.21588175e+00  2.22759745e+00
  2.23710892e+00  2.25214632e+00  2.26116393e+00  2.27090697e+00
  2.28560897e+00  2.28693586e+00  2.28848766e+00  2.29680403e+00
  2.30639774e+00  2.32326452e+00  2.33443278e+00  2.34701855e+00
  2.34993168e+00  2.36399064e+00  2.37028860e+00  2.39436888e+00
  2.39489490e+00  2.41465836e+00  2.41877394e+00  2.42483037e+00
  2.45378294e+00  2.45836061e+00  2.46373523e+00  2.48946339e+00
  2.50190621e+00  2.51540791e+00  2.52518746e+00  2.54653635e+00
  2.54877970e+00  2.55067397e+00  2.56399524e+00  2.56990177e+00
  2.57371376e+00  2.57707076e+00  2.58820019e+00  2.59300051e+00
  2.59587896e+00  2.60108301e+00  2.61569140e+00  2.62077655e+00
  2.62685841e+00  2.63135552e+00  2.63799436e+00  2.64344301e+00
  2.65386678e+00  2.65682488e+00  2.66311584e+00  2.66864130e+00
  2.67561534e+00  2.68082689e+00  2.68926164e+00  2.69278394e+00
  2.70193168e+00  2.70401272e+00  2.70850213e+00  2.72064038e+00
  2.72466098e+00  2.73573958e+00  2.74020721e+00  2.74432125e+00
  2.75178350e+00  2.75314594e+00  2.76221289e+00  2.77010630e+00
  2.77209063e+00  2.77472685e+00  2.78502306e+00  2.78918596e+00
  2.79613206e+00  2.80512685e+00  2.81100162e+00  2.81248975e+00
  2.81381364e+00  2.82182139e+00  2.82730102e+00  2.83238506e+00
  2.84181015e+00  2.84544984e+00  2.85649397e+00  2.85677862e+00
  2.86787435e+00  2.87462569e+00  2.88285422e+00  2.89110100e+00
  2.89860836e+00  2.90312304e+00  2.91009053e+00  2.91096316e+00
  2.92743178e+00  2.93112814e+00  2.94129863e+00  2.94463600e+00
  2.95213920e+00  2.95680143e+00  2.96384011e+00  2.96920914e+00
  2.98275487e+00  2.99812126e+00  3.00111467e+00  3.00272056e+00
  3.00792097e+00  3.01619321e+00  3.02752887e+00  3.03175940e+00
  3.04661470e+00  3.04891318e+00  3.05290906e+00  3.05858884e+00
  3.06694119e+00  3.07354590e+00  3.07689759e+00  3.09033760e+00
  3.09611323e+00  3.09649462e+00  3.10446778e+00  3.11445897e+00
  3.12240363e+00  3.13064264e+00  3.13934859e+00  3.14322335e+00
  3.15043217e+00  3.15438712e+00  3.15713831e+00  3.16441048e+00
  3.16506999e+00  3.17714862e+00  3.17789194e+00  3.18112280e+00
  3.18937532e+00  3.19421082e+00  3.19791749e+00  3.21030063e+00
  3.21177583e+00  3.22377856e+00  3.22739018e+00  3.23627747e+00
  3.24782471e+00  3.24938677e+00  3.25298259e+00  3.26485038e+00
  3.26494529e+00  3.27352014e+00  3.28143433e+00  3.28853752e+00
  3.29081406e+00  3.30024925e+00  3.30171157e+00  3.30827004e+00
  3.31592775e+00  3.32044637e+00  3.32801134e+00  3.32909058e+00
  3.33440713e+00  3.34301091e+00  3.34942405e+00  3.35571425e+00
  3.36633411e+00  3.36968385e+00  3.37227211e+00  3.38236657e+00
  3.38337642e+00  3.39113695e+00  3.40041385e+00  3.40306444e+00
  3.40565476e+00  3.41199398e+00  3.41342220e+00  3.42743367e+00
  3.43126434e+00  3.43869378e+00  3.44188637e+00  3.45132311e+00
  3.45333348e+00  3.46135823e+00  3.46288045e+00  3.46926355e+00
  3.47195591e+00  3.47299703e+00  3.48343172e+00  3.48958790e+00
  3.49365794e+00  3.50500079e+00  3.51299040e+00  3.51726675e+00
  3.53010273e+00  3.53534782e+00  3.54038897e+00  3.55147616e+00
  3.55763624e+00  3.56744875e+00  3.57514643e+00  3.58772988e+00
  3.59271711e+00  3.59641034e+00  3.60422959e+00  3.61781597e+00
  3.62511904e+00  3.63792977e+00  3.64582559e+00  3.65259905e+00
  3.66524971e+00  3.67277502e+00  3.67707062e+00  3.68311962e+00
  3.70906147e+00  3.71746372e+00  3.72274562e+00  3.73701632e+00
  3.74735914e+00  3.76402128e+00  3.78496843e+00  3.79489781e+00
  3.80222707e+00  3.81809137e+00  3.82711817e+00  3.84109984e+00
  3.85496158e+00  3.86337086e+00  3.87343569e+00  3.88101623e+00
  3.88910839e+00  3.89649192e+00  3.90074876e+00  3.90332117e+00
  3.91714975e+00  3.92783227e+00  3.94165402e+00  3.94710245e+00
  3.95327859e+00  3.96875089e+00  3.97909569e+00  4.00705158e+00
  4.01563736e+00  4.04152985e+00  4.05184538e+00  4.06146063e+00
  4.06877647e+00  4.07595233e+00  4.08521150e+00  4.09658594e+00
  4.11484181e+00  4.12365339e+00  4.12826580e+00  4.14848470e+00
  4.15021502e+00  4.15567506e+00  4.16801657e+00  4.17641647e+00
  4.17883312e+00  4.18688810e+00  4.19802333e+00  4.20013871e+00
  4.20903021e+00  4.21415747e+00  4.21918500e+00  4.22385876e+00
  4.24588773e+00  4.25163212e+00  4.26505340e+00  4.29248410e+00
  4.29972711e+00  4.31349351e+00  4.34389020e+00  4.36461344e+00
  4.37079445e+00  4.38244199e+00  4.39454057e+00  4.40836918e+00
  4.42124197e+00  4.43122291e+00  4.44200968e+00  4.45347541e+00
  4.46704065e+00  4.48915633e+00  4.52050639e+00  4.53164618e+00
  4.53997805e+00  4.56389408e+00  4.58166908e+00  4.58742548e+00
  4.59985686e+00  4.60132320e+00  4.60347756e+00  4.63205791e+00
  4.65762142e+00  4.66283825e+00  4.69094879e+00  4.70777414e+00
  4.72300448e+00  4.74625084e+00  4.77648834e+00  4.78462117e+00
  4.79588867e+00  4.81234065e+00  4.82632034e+00  4.84733993e+00
  4.87919190e+00  4.89440286e+00  4.91708787e+00  4.92748032e+00
  4.93495930e+00  4.95124406e+00  4.97182606e+00  4.98437296e+00
  5.03682029e+00  5.06430494e+00  5.06697090e+00  5.08860250e+00
  5.10047568e+00  5.14890185e+00  5.15682806e+00  5.16723821e+00
  5.17425498e+00  5.19629975e+00  5.20657020e+00  5.23297365e+00
  5.24735354e+00  5.25708905e+00  5.25779687e+00  5.28520475e+00
  5.32212608e+00  5.33629722e+00  5.35809229e+00  5.36176636e+00
  5.38926369e+00  5.42277820e+00  5.45494768e+00  5.46266347e+00
  5.49327410e+00  5.49708181e+00  5.51267983e+00  5.54011778e+00
  5.54479544e+00  5.55668089e+00  5.59323483e+00  5.61023362e+00
  5.64750536e+00  5.71558285e+00  5.75172114e+00  5.76028243e+00
  5.78418264e+00  5.80728960e+00  5.80956912e+00  5.82168199e+00
  5.85803209e+00  5.86829523e+00  5.94019051e+00  5.95898980e+00
  5.98128306e+00  6.12005562e+00  6.14437453e+00  6.20262603e+00
  6.27959439e+00  6.29247041e+00  6.36396470e+00  6.37807670e+00
  6.38643343e+00  6.41184037e+00  6.43481255e+00  6.43869298e+00
  6.48383711e+00  6.49243251e+00  6.60000341e+00  6.62712937e+00
  6.65773531e+00  6.68337194e+00  6.70304967e+00  6.70789014e+00
  6.73855704e+00  6.79049731e+00  6.82702644e+00  6.83478390e+00
  6.84528905e+00  6.86280960e+00  6.87892366e+00  6.89139709e+00
  6.96127384e+00  6.99099942e+00  7.11045040e+00  7.11994449e+00
  7.14655592e+00  7.21235957e+00  7.27240489e+00  7.38321279e+00
  7.44844588e+00  7.49740168e+00  2.23177637e+01  2.23712657e+01
  2.25676128e+01  2.26182041e+01  2.26915823e+01  2.26958093e+01
  2.27330766e+01  2.28170954e+01  2.28510703e+01  2.29043455e+01
  2.29427693e+01  2.29539458e+01  2.30386002e+01  2.30878655e+01
  2.31210962e+01  2.33033401e+01  2.33635327e+01  2.34913846e+01
  2.35406801e+01  2.37951724e+01  4.39808462e+01  4.40163602e+01
  4.40648476e+01  4.40946662e+01  4.46091606e+01]
nelec by numeric integration = 172.00015275707634
    CPU time for vxc     88.43 sec, wall time      4.82 sec
    CPU time for df vj and vk    241.74 sec, wall time     15.24 sec
E1 = -5665.799325079532  Ecoul = 2609.392157757946  Exc = -154.64710701092332
cycle= 1 E= -1144.61342617524  delta_E= 4.77e-11  |g|= 1.55e-05  |ddm|= 4.62e-05
    CPU time for cycle= 1    335.41 sec, wall time     20.46 sec
  HOMO = -0.216364273311283  LUMO = -0.0913028724258627
  mo_energy =
[-1.92869697e+01 -1.92725892e+01 -1.92656811e+01 -1.92130878e+01
 -1.91539037e+01 -1.03780646e+01 -1.03248364e+01 -1.03216821e+01
 -1.03125413e+01 -1.02871610e+01 -1.02853279e+01 -1.02835567e+01
 -1.02785621e+01 -1.02673282e+01 -1.02668124e+01 -1.02642106e+01
 -1.02626650e+01 -1.02621149e+01 -1.02619152e+01 -1.02593060e+01
 -1.02517885e+01 -1.02461752e+01 -1.02456972e+01 -1.02296014e+01
 -1.02176640e+01 -1.15241811e+00 -1.14619544e+00 -1.11821777e+00
 -1.06035888e+00 -1.02197188e+00 -9.27635093e-01 -9.04208611e-01
 -8.89809602e-01 -8.40441342e-01 -8.17468016e-01 -8.10029612e-01
 -7.97602638e-01 -7.71432391e-01 -7.62419632e-01 -7.10771027e-01
 -6.88541975e-01 -6.79933408e-01 -6.72606017e-01 -6.48414022e-01
 -6.30250790e-01 -6.16009747e-01 -6.01720955e-01 -5.72634699e-01
 -5.64655685e-01 -5.52429349e-01 -5.39889080e-01 -5.26820455e-01
 -5.15357090e-01 -5.12570161e-01 -5.02168261e-01 -4.92583321e-01
 -4.89807840e-01 -4.86966011e-01 -4.82728169e-01 -4.71942644e-01
 -4.63560745e-01 -4.62123787e-01 -4.48576937e-01 -4.45730118e-01
 -4.37100617e-01 -4.35471878e-01 -4.23294974e-01 -4.08062935e-01
 -4.06246791e-01 -4.02754360e-01 -4.01151041e-01 -3.94871677e-01
 -3.91901418e-01 -3.80402021e-01 -3.79085969e-01 -3.59308824e-01
 -3.53286789e-01 -3.52842203e-01 -3.16012776e-01 -3.01899671e-01
 -2.97193560e-01 -2.91865364e-01 -2.81761403e-01 -2.57326309e-01
 -2.41478647e-01 -2.16364273e-01 -9.13028724e-02 -7.62341822e-02
 -4.35124387e-02 -2.57328025e-02 -1.04129604e-02  4.41298709e-03
  2.20645760e-02  3.13296324e-02  3.23360380e-02  4.72916769e-02
  5.13606085e-02  5.63999811e-02  6.98741363e-02  7.27995250e-02
  8.08716116e-02  8.58886125e-02  9.75721287e-02  1.01248301e-01
  1.09819562e-01  1.13271399e-01  1.21604458e-01  1.26422836e-01
  1.30062195e-01  1.32570444e-01  1.39144611e-01  1.50254920e-01
  1.63169525e-01  1.69528688e-01  1.73627852e-01  1.80719684e-01
  1.87243242e-01  1.88928999e-01  1.92269775e-01  1.94770837e-01
  1.96206085e-01  2.00558326e-01  2.03870366e-01  2.14375616e-01
  2.16353656e-01  2.20796207e-01  2.23089251e-01  2.28570943e-01
  2.31244953e-01  2.35769222e-01  2.39236809e-01  2.46680917e-01
  2.51786253e-01  2.54367986e-01  2.57028792e-01  2.66356605e-01
  2.69094754e-01  2.69705004e-01  2.75956587e-01  2.79192088e-01
  2.86930594e-01  2.91026851e-01  2.99669027e-01  3.01485768e-01
  3.06111987e-01  3.14341781e-01  3.18290691e-01  3.23005516e-01
  3.28449306e-01  3.33854953e-01  3.34476938e-01  3.38989325e-01
  3.40876505e-01  3.43044465e-01  3.47355442e-01  3.52206694e-01
  3.54158826e-01  3.57213370e-01  3.62203745e-01  3.64644120e-01
  3.67135630e-01  3.68098225e-01  3.73882740e-01  3.80104632e-01
  3.85582183e-01  3.90214672e-01  3.98622683e-01  4.01021498e-01
  4.05082258e-01  4.10553197e-01  4.18336688e-01  4.23369935e-01
  4.24606238e-01  4.27342046e-01  4.33712088e-01  4.38770343e-01
  4.40990039e-01  4.43400228e-01  4.46973400e-01  4.53330708e-01
  4.55691087e-01  4.56630061e-01  4.62163451e-01  4.67641963e-01
  4.71259472e-01  4.78107569e-01  4.79992800e-01  4.85175452e-01
  4.89480222e-01  4.94060274e-01  4.99764730e-01  5.02800860e-01
  5.08292835e-01  5.10831546e-01  5.20358208e-01  5.23459316e-01
  5.35585427e-01  5.38429977e-01  5.40760596e-01  5.46175816e-01
  5.50522065e-01  5.60544227e-01  5.64435608e-01  5.71738929e-01
  5.75063278e-01  5.85991507e-01  5.95148326e-01  6.05658719e-01
  6.11070436e-01  6.24548501e-01  6.26038421e-01  6.31501846e-01
  6.43233345e-01  6.43940582e-01  6.47946865e-01  6.55664372e-01
  6.59466309e-01  6.62449883e-01  6.65448383e-01  6.67293854e-01
  6.69189305e-01  6.71915220e-01  6.77981349e-01  6.81468353e-01
  6.90549815e-01  6.93977792e-01  7.00464839e-01  7.02845612e-01
  7.06410219e-01  7.17946204e-01  7.22046408e-01  7.30429575e-01
  7.33444377e-01  7.34998152e-01  7.45730737e-01  7.48963239e-01
  7.54772818e-01  7.55281713e-01  7.60676069e-01  7.66993074e-01
  7.75605286e-01  7.77793404e-01  7.83218955e-01  7.87161791e-01
  7.91292736e-01  7.93182760e-01  8.06221374e-01  8.13033702e-01
  8.15137397e-01  8.22294449e-01  8.26452984e-01  8.35509139e-01
  8.39350510e-01  8.45157101e-01  8.48664029e-01  8.64199495e-01
  8.66037917e-01  8.70660345e-01  8.75858391e-01  8.76357069e-01
  8.84624291e-01  8.89391868e-01  8.94916977e-01  9.01021180e-01
  9.02384039e-01  9.12464885e-01  9.17726939e-01  9.27213019e-01
  9.29129306e-01  9.38500191e-01  9.46442022e-01  9.56086980e-01
  9.65297446e-01  9.80040240e-01  9.91404421e-01  1.00097982e+00
  1.01142066e+00  1.01528327e+00  1.02093144e+00  1.02772274e+00
  1.03305518e+00  1.04253510e+00  1.05267492e+00  1.07379695e+00
  1.07805425e+00  1.08169422e+00  1.09228596e+00  1.09992995e+00
  1.10430977e+00  1.11140265e+00  1.11630402e+00  1.12388847e+00
  1.12878312e+00  1.13368210e+00  1.14028731e+00  1.15339169e+00
  1.15498162e+00  1.17608476e+00  1.17863295e+00  1.19181928e+00
  1.19327958e+00  1.21016148e+00  1.21853058e+00  1.22209699e+00
  1.22661767e+00  1.23375161e+00  1.23896931e+00  1.24428765e+00
  1.24862211e+00  1.25434947e+00  1.25843116e+00  1.27058444e+00
  1.28225195e+00  1.29668926e+00  1.30200789e+00  1.30616137e+00
  1.31630242e+00  1.31933216e+00  1.32600860e+00  1.33069105e+00
  1.33753245e+00  1.34437026e+00  1.37026556e+00  1.37533156e+00
  1.38679863e+00  1.39256428e+00  1.40108704e+00  1.40911272e+00
  1.41286938e+00  1.41896146e+00  1.42664395e+00  1.43767694e+00
  1.44883623e+00  1.45560781e+00  1.46179266e+00  1.46501456e+00
  1.47565734e+00  1.47773161e+00  1.48426133e+00  1.49574642e+00
  1.49770093e+00  1.50297221e+00  1.50957637e+00  1.51471537e+00
  1.52956116e+00  1.53432150e+00  1.53867698e+00  1.54519777e+00
  1.55798436e+00  1.56174754e+00  1.56754376e+00  1.57760128e+00
  1.58651658e+00  1.59266375e+00  1.60173805e+00  1.60627426e+00
  1.60972736e+00  1.61648758e+00  1.62964532e+00  1.63532521e+00
  1.64079312e+00  1.64752451e+00  1.65276341e+00  1.65543021e+00
  1.66588863e+00  1.66829049e+00  1.66934264e+00  1.68041202e+00
  1.68332002e+00  1.68749134e+00  1.69536969e+00  1.70426103e+00
  1.71132381e+00  1.72476313e+00  1.73114289e+00  1.73736085e+00
  1.73856610e+00  1.74543821e+00  1.75296745e+00  1.75890202e+00
  1.76813158e+00  1.77695229e+00  1.80030351e+00  1.80801629e+00
  1.82013113e+00  1.82585024e+00  1.83101903e+00  1.83666841e+00
  1.84568312e+00  1.85472653e+00  1.86355966e+00  1.86548525e+00
  1.87285562e+00  1.88710911e+00  1.89176954e+00  1.89592679e+00
  1.90538034e+00  1.91695318e+00  1.92215912e+00  1.92584836e+00
  1.94755093e+00  1.95857337e+00  1.96482371e+00  1.97800071e+00
  1.97932438e+00  1.99784577e+00  2.00261791e+00  2.00721621e+00
  2.01604228e+00  2.02937160e+00  2.03867175e+00  2.03985723e+00
  2.04868266e+00  2.05705015e+00  2.06873472e+00  2.07460862e+00
  2.09020401e+00  2.09564281e+00  2.09767293e+00  2.10282209e+00
  2.11194362e+00  2.11820347e+00  2.12479612e+00  2.13604797e+00
  2.14374208e+00  2.15044659e+00  2.15841617e+00  2.16326119e+00
  2.17163859e+00  2.18629063e+00  2.19542625e+00  2.19740896e+00
  2.20640322e+00  2.21252116e+00  2.21588289e+00  2.22759772e+00
  2.23710992e+00  2.25214654e+00  2.26116446e+00  2.27090741e+00
  2.28560871e+00  2.28693727e+00  2.28848816e+00  2.29680391e+00
  2.30639863e+00  2.32326531e+00  2.33443373e+00  2.34701910e+00
  2.34993253e+00  2.36399155e+00  2.37028986e+00  2.39437000e+00
  2.39489563e+00  2.41465888e+00  2.41877449e+00  2.42483105e+00
  2.45378329e+00  2.45835923e+00  2.46373601e+00  2.48946438e+00
  2.50190685e+00  2.51540849e+00  2.52518814e+00  2.54653664e+00
  2.54878063e+00  2.55067488e+00  2.56399544e+00  2.56990218e+00
  2.57371478e+00  2.57707149e+00  2.58820057e+00  2.59300088e+00
  2.59587884e+00  2.60108345e+00  2.61569198e+00  2.62077727e+00
  2.62685860e+00  2.63135578e+00  2.63799468e+00  2.64344341e+00
  2.65386718e+00  2.65682514e+00  2.66311611e+00  2.66864153e+00
  2.67561601e+00  2.68082754e+00  2.68926255e+00  2.69278469e+00
  2.70193198e+00  2.70401360e+00  2.70850261e+00  2.72064090e+00
  2.72466129e+00  2.73574003e+00  2.74020789e+00  2.74432205e+00
  2.75178433e+00  2.75314650e+00  2.76221353e+00  2.77010756e+00
  2.77209120e+00  2.77472765e+00  2.78502352e+00  2.78918679e+00
  2.79613246e+00  2.80512757e+00  2.81100191e+00  2.81249020e+00
  2.81381482e+00  2.82182155e+00  2.82730118e+00  2.83238513e+00
  2.84181058e+00  2.84545105e+00  2.85649439e+00  2.85677924e+00
  2.86787467e+00  2.87462641e+00  2.88285501e+00  2.89110180e+00
  2.89860930e+00  2.90312365e+00  2.91009127e+00  2.91096365e+00
  2.92743285e+00  2.93112892e+00  2.94129948e+00  2.94463688e+00
  2.95214013e+00  2.95680225e+00  2.96384073e+00  2.96920988e+00
  2.98275567e+00  2.99812212e+00  3.00111553e+00  3.00272112e+00
  3.00792190e+00  3.01619444e+00  3.02752999e+00  3.03176056e+00
  3.04661528e+00  3.04891342e+00  3.05290977e+00  3.05858937e+00
  3.06694219e+00  3.07354611e+00  3.07689785e+00  3.09033719e+00
  3.09611425e+00  3.09649534e+00  3.10446850e+00  3.11445920e+00
  3.12240419e+00  3.13064304e+00  3.13934904e+00  3.14322441e+00
  3.15043281e+00  3.15438747e+00  3.15713888e+00  3.16441093e+00
  3.16507043e+00  3.17714924e+00  3.17789242e+00  3.18112321e+00
  3.18937583e+00  3.19421112e+00  3.19791817e+00  3.21030134e+00
  3.21177639e+00  3.22377907e+00  3.22739099e+00  3.23627781e+00
  3.24782499e+00  3.24938688e+00  3.25298333e+00  3.26485124e+00
  3.26494601e+00  3.27352084e+00  3.28143489e+00  3.28853823e+00
  3.29081467e+00  3.30024986e+00  3.30171244e+00  3.30827055e+00
  3.31592816e+00  3.32044723e+00  3.32801216e+00  3.32909123e+00
  3.33440769e+00  3.34301206e+00  3.34942456e+00  3.35571492e+00
  3.36633502e+00  3.36968475e+00  3.37227278e+00  3.38236769e+00
  3.38337721e+00  3.39113781e+00  3.40041515e+00  3.40306527e+00
  3.40565554e+00  3.41199394e+00  3.41342232e+00  3.42743441e+00
  3.43126509e+00  3.43869470e+00  3.44188701e+00  3.45132381e+00
  3.45333399e+00  3.46135872e+00  3.46288147e+00  3.46926440e+00
  3.47195658e+00  3.47299766e+00  3.48343298e+00  3.48958856e+00
  3.49365888e+00  3.50500151e+00  3.51299176e+00  3.51726765e+00
  3.53010386e+00  3.53534859e+00  3.54038989e+00  3.55147652e+00
  3.55763715e+00  3.56745027e+00  3.57514741e+00  3.58773096e+00
  3.59271823e+00  3.59641162e+00  3.60423148e+00  3.61781706e+00
  3.62512000e+00  3.63793055e+00  3.64582623e+00  3.65259995e+00
  3.66525057e+00  3.67277630e+00  3.67707171e+00  3.68312120e+00
  3.70906251e+00  3.71746388e+00  3.72274584e+00  3.73701737e+00
  3.74736025e+00  3.76402231e+00  3.78496916e+00  3.79489862e+00
  3.80222782e+00  3.81809242e+00  3.82711909e+00  3.84110093e+00
  3.85496144e+00  3.86337228e+00  3.87343751e+00  3.88101725e+00
  3.88910940e+00  3.89649236e+00  3.90074890e+00  3.90332214e+00
  3.91715026e+00  3.92783287e+00  3.94165473e+00  3.94710329e+00
  3.95327942e+00  3.96875178e+00  3.97909658e+00  4.00705203e+00
  4.01563779e+00  4.04153066e+00  4.05184614e+00  4.06146148e+00
  4.06877749e+00  4.07595289e+00  4.08521228e+00  4.09658675e+00
  4.11484276e+00  4.12365417e+00  4.12826643e+00  4.14848550e+00
  4.15021564e+00  4.15567568e+00  4.16801717e+00  4.17641673e+00
  4.17883374e+00  4.18688853e+00  4.19802404e+00  4.20013958e+00
  4.20903119e+00  4.21415815e+00  4.21918592e+00  4.22385916e+00
  4.24588881e+00  4.25163310e+00  4.26505449e+00  4.29248429e+00
  4.29972739e+00  4.31349459e+00  4.34389124e+00  4.36461482e+00
  4.37079549e+00  4.38244320e+00  4.39454190e+00  4.40837050e+00
  4.42124353e+00  4.43122451e+00  4.44201110e+00  4.45347638e+00
  4.46704182e+00  4.48915775e+00  4.52050508e+00  4.53164687e+00
  4.53997859e+00  4.56389535e+00  4.58167003e+00  4.58742648e+00
  4.59985789e+00  4.60132405e+00  4.60347847e+00  4.63205875e+00
  4.65762259e+00  4.66283942e+00  4.69095052e+00  4.70777499e+00
  4.72300587e+00  4.74625231e+00  4.77648920e+00  4.78462203e+00
  4.79588963e+00  4.81234154e+00  4.82632065e+00  4.84734070e+00
  4.87919252e+00  4.89440354e+00  4.91708871e+00  4.92748018e+00
  4.93495982e+00  4.95124488e+00  4.97182671e+00  4.98437377e+00
  5.03682146e+00  5.06430501e+00  5.06697154e+00  5.08860406e+00
  5.10047681e+00  5.14890340e+00  5.15682828e+00  5.16723884e+00
  5.17425521e+00  5.19630059e+00  5.20657199e+00  5.23297635e+00
  5.24735394e+00  5.25708874e+00  5.25779292e+00  5.28520185e+00
  5.32212766e+00  5.33629860e+00  5.35809326e+00  5.36176648e+00
  5.38926562e+00  5.42277935e+00  5.45494904e+00  5.46266389e+00
  5.49327567e+00  5.49708268e+00  5.51268064e+00  5.54011922e+00
  5.54479673e+00  5.55668173e+00  5.59323572e+00  5.61022910e+00
  5.64750711e+00  5.71558506e+00  5.75172231e+00  5.76028415e+00
  5.78418352e+00  5.80728894e+00  5.80957025e+00  5.82168279e+00
  5.85803370e+00  5.86829623e+00  5.94019222e+00  5.95899035e+00
  5.98128354e+00  6.12005081e+00  6.14437728e+00  6.20262756e+00
  6.27959495e+00  6.29247059e+00  6.36396579e+00  6.37807718e+00
  6.38643599e+00  6.41184104e+00  6.43480847e+00  6.43868638e+00
  6.48383998e+00  6.49243341e+00  6.60000691e+00  6.62713154e+00
  6.65773145e+00  6.68336730e+00  6.70304964e+00  6.70789077e+00
  6.73855841e+00  6.79049791e+00  6.82702748e+00  6.83478502e+00
  6.84529283e+00  6.86280363e+00  6.87892581e+00  6.89139906e+00
  6.96127440e+00  6.99100003e+00  7.11045370e+00  7.11993895e+00
  7.14655005e+00  7.21236236e+00  7.27240543e+00  7.38321331e+00
  7.44844791e+00  7.49740371e+00  2.23177627e+01  2.23712661e+01
  2.25676127e+01  2.26182032e+01  2.26915820e+01  2.26958079e+01
  2.27330761e+01  2.28170968e+01  2.28510711e+01  2.29043464e+01
  2.29427706e+01  2.29539468e+01  2.30386012e+01  2.30878675e+01
  2.31210982e+01  2.33033437e+01  2.33635331e+01  2.34913855e+01
  2.35406815e+01  2.37951760e+01  4.39808456e+01  4.40163613e+01
  4.40648378e+01  4.40946726e+01  4.46091634e+01]
nelec by numeric integration = 172.00015275709254
    CPU time for vxc     91.30 sec, wall time      4.97 sec
    CPU time for df vj and vk    241.62 sec, wall time     15.17 sec
E1 = -5665.79898128846  Ecoul = 2609.391817214165  Exc = -154.64711025787443
cycle= 2 E= -1144.6134261749  delta_E= 3.4e-10  |g|= 4.02e-05  |ddm|= 0.000124
    CPU time for cycle= 2    338.13 sec, wall time     20.54 sec
  HOMO = -0.216364425745898  LUMO = -0.0913038770385679
  mo_energy =
[-1.92869719e+01 -1.92725883e+01 -1.92656815e+01 -1.92130925e+01
 -1.91538959e+01 -1.03780646e+01 -1.03248376e+01 -1.03216816e+01
 -1.03125434e+01 -1.02871664e+01 -1.02853270e+01 -1.02835604e+01
 -1.02785627e+01 -1.02673273e+01 -1.02668112e+01 -1.02642121e+01
 -1.02626634e+01 -1.02621174e+01 -1.02619187e+01 -1.02593080e+01
 -1.02517875e+01 -1.02461754e+01 -1.02456990e+01 -1.02296000e+01
 -1.02176637e+01 -1.15241861e+00 -1.14619710e+00 -1.11821784e+00
 -1.06036039e+00 -1.02196843e+00 -9.27636624e-01 -9.04209588e-01
 -8.89810876e-01 -8.40442229e-01 -8.17468331e-01 -8.10030422e-01
 -7.97603547e-01 -7.71432962e-01 -7.62420418e-01 -7.10771553e-01
 -6.88542695e-01 -6.79934103e-01 -6.72606911e-01 -6.48414797e-01
 -6.30251323e-01 -6.16010339e-01 -6.01721894e-01 -5.72634934e-01
 -5.64656174e-01 -5.52430264e-01 -5.39890119e-01 -5.26821508e-01
 -5.15357580e-01 -5.12570632e-01 -5.02169068e-01 -4.92583784e-01
 -4.89808835e-01 -4.86966729e-01 -4.82729047e-01 -4.71943312e-01
 -4.63561060e-01 -4.62124727e-01 -4.48577154e-01 -4.45730765e-01
 -4.37101271e-01 -4.35472201e-01 -4.23294928e-01 -4.08063168e-01
 -4.06247190e-01 -4.02754190e-01 -4.01150726e-01 -3.94871895e-01
 -3.91900721e-01 -3.80402551e-01 -3.79087467e-01 -3.59309494e-01
 -3.53287567e-01 -3.52842951e-01 -3.16014322e-01 -3.01900084e-01
 -2.97194308e-01 -2.91866027e-01 -2.81762232e-01 -2.57326871e-01
 -2.41475487e-01 -2.16364426e-01 -9.13038770e-02 -7.62348987e-02
 -4.35130620e-02 -2.57335765e-02 -1.04137686e-02  4.41246519e-03
  2.20645166e-02  3.13292490e-02  3.23356016e-02  4.72915122e-02
  5.13600948e-02  5.63995985e-02  6.98736955e-02  7.27990786e-02
  8.08712209e-02  8.58883586e-02  9.75718818e-02  1.01247928e-01
  1.09819489e-01  1.13271369e-01  1.21604275e-01  1.26422208e-01
  1.30061800e-01  1.32569956e-01  1.39144102e-01  1.50254388e-01
  1.63169554e-01  1.69527898e-01  1.73627097e-01  1.80719132e-01
  1.87242864e-01  1.88928373e-01  1.92269117e-01  1.94770250e-01
  1.96205719e-01  2.00558018e-01  2.03870034e-01  2.14375207e-01
  2.16353156e-01  2.20795549e-01  2.23088850e-01  2.28570602e-01
  2.31244060e-01  2.35768797e-01  2.39236451e-01  2.46680387e-01
  2.51785887e-01  2.54367697e-01  2.57028459e-01  2.66356049e-01
  2.69094273e-01  2.69704681e-01  2.75955960e-01  2.79191675e-01
  2.86929975e-01  2.91026544e-01  2.99668417e-01  3.01485417e-01
  3.06111387e-01  3.14341157e-01  3.18290145e-01  3.23005113e-01
  3.28448941e-01  3.33854320e-01  3.34476421e-01  3.38988887e-01
  3.40876185e-01  3.43043981e-01  3.47354910e-01  3.52206117e-01
  3.54158596e-01  3.57212876e-01  3.62203323e-01  3.64643815e-01
  3.67135279e-01  3.68097779e-01  3.73882335e-01  3.80104264e-01
  3.85581583e-01  3.90214730e-01  3.98622133e-01  4.01021380e-01
  4.05081902e-01  4.10552749e-01  4.18336333e-01  4.23369425e-01
  4.24605853e-01  4.27341764e-01  4.33711803e-01  4.38769972e-01
  4.40989650e-01  4.43399936e-01  4.46972872e-01  4.53330450e-01
  4.55690421e-01  4.56629696e-01  4.62163043e-01  4.67641321e-01
  4.71258886e-01  4.78107061e-01  4.79992460e-01  4.85174759e-01
  4.89480132e-01  4.94059786e-01  4.99764432e-01  5.02800727e-01
  5.08292485e-01  5.10831222e-01  5.20357784e-01  5.23458711e-01
  5.35584726e-01  5.38429529e-01  5.40760264e-01  5.46175002e-01
  5.50521256e-01  5.60543861e-01  5.64434822e-01  5.71738462e-01
  5.75062670e-01  5.85991198e-01  5.95147932e-01  6.05658256e-01
  6.11070065e-01  6.24547880e-01  6.26038652e-01  6.31501380e-01
  6.43232958e-01  6.43940072e-01  6.47946437e-01  6.55664043e-01
  6.59465991e-01  6.62449233e-01  6.65447874e-01  6.67293278e-01
  6.69188811e-01  6.71914607e-01  6.77980654e-01  6.81467696e-01
  6.90549186e-01  6.93977150e-01  7.00464211e-01  7.02845043e-01
  7.06409336e-01  7.17945535e-01  7.22045730e-01  7.30429094e-01
  7.33443815e-01  7.34997572e-01  7.45730185e-01  7.48962862e-01
  7.54772268e-01  7.55281185e-01  7.60675474e-01  7.66992388e-01
  7.75604664e-01  7.77792727e-01  7.83218289e-01  7.87161080e-01
  7.91292189e-01  7.93182162e-01  8.06220709e-01  8.13033044e-01
  8.15136867e-01  8.22293986e-01  8.26452446e-01  8.35508717e-01
  8.39349703e-01  8.45156500e-01  8.48663309e-01  8.64198910e-01
  8.66037152e-01  8.70659715e-01  8.75857786e-01  8.76356530e-01
  8.84623972e-01  8.89391631e-01  8.94916544e-01  9.01020564e-01
  9.02384732e-01  9.12464337e-01  9.17726424e-01  9.27212569e-01
  9.29128941e-01  9.38500088e-01  9.46441611e-01  9.56086520e-01
  9.65296911e-01  9.80039581e-01  9.91404163e-01  1.00097940e+00
  1.01142001e+00  1.01528257e+00  1.02093076e+00  1.02772230e+00
  1.03305452e+00  1.04253470e+00  1.05267416e+00  1.07379651e+00
  1.07805360e+00  1.08169367e+00  1.09228540e+00  1.09992963e+00
  1.10430949e+00  1.11140209e+00  1.11630353e+00  1.12388804e+00
  1.12878256e+00  1.13368171e+00  1.14028698e+00  1.15339134e+00
  1.15498112e+00  1.17608396e+00  1.17863265e+00  1.19181889e+00
  1.19327929e+00  1.21016124e+00  1.21852991e+00  1.22209640e+00
  1.22661721e+00  1.23375106e+00  1.23896877e+00  1.24428701e+00
  1.24862153e+00  1.25434893e+00  1.25843069e+00  1.27058387e+00
  1.28225149e+00  1.29668876e+00  1.30200722e+00  1.30616100e+00
  1.31630186e+00  1.31933145e+00  1.32600793e+00  1.33069061e+00
  1.33753179e+00  1.34436979e+00  1.37026496e+00  1.37533095e+00
  1.38679830e+00  1.39256365e+00  1.40108656e+00  1.40911206e+00
  1.41286880e+00  1.41896084e+00  1.42664311e+00  1.43767656e+00
  1.44883565e+00  1.45560747e+00  1.46179229e+00  1.46501435e+00
  1.47565726e+00  1.47773132e+00  1.48426086e+00  1.49574607e+00
  1.49770005e+00  1.50297175e+00  1.50957591e+00  1.51471476e+00
  1.52956055e+00  1.53432067e+00  1.53867630e+00  1.54519719e+00
  1.55798385e+00  1.56174698e+00  1.56754304e+00  1.57760078e+00
  1.58651590e+00  1.59266272e+00  1.60173738e+00  1.60627344e+00
  1.60972687e+00  1.61648715e+00  1.62964508e+00  1.63532487e+00
  1.64079251e+00  1.64752360e+00  1.65276269e+00  1.65542966e+00
  1.66588782e+00  1.66829020e+00  1.66934206e+00  1.68041119e+00
  1.68331952e+00  1.68749088e+00  1.69536918e+00  1.70426064e+00
  1.71132314e+00  1.72476266e+00  1.73114234e+00  1.73736034e+00
  1.73856541e+00  1.74543761e+00  1.75296670e+00  1.75890158e+00
  1.76813084e+00  1.77695166e+00  1.80030266e+00  1.80801569e+00
  1.82013041e+00  1.82584956e+00  1.83101867e+00  1.83666823e+00
  1.84568255e+00  1.85472570e+00  1.86355939e+00  1.86548489e+00
  1.87285507e+00  1.88710890e+00  1.89176893e+00  1.89592646e+00
  1.90537956e+00  1.91695274e+00  1.92215850e+00  1.92584798e+00
  1.94755028e+00  1.95857353e+00  1.96482303e+00  1.97800037e+00
  1.97932409e+00  1.99784513e+00  2.00261751e+00  2.00721536e+00
  2.01604136e+00  2.02937056e+00  2.03867144e+00  2.03985684e+00
  2.04868202e+00  2.05704957e+00  2.06873417e+00  2.07460774e+00
  2.09020339e+00  2.09564218e+00  2.09767239e+00  2.10282133e+00
  2.11194319e+00  2.11820264e+00  2.12479574e+00  2.13604768e+00
  2.14374132e+00  2.15044595e+00  2.15841509e+00  2.16326039e+00
  2.17163787e+00  2.18628988e+00  2.19542555e+00  2.19740808e+00
  2.20640236e+00  2.21252042e+00  2.21588203e+00  2.22759736e+00
  2.23710911e+00  2.25214630e+00  2.26116401e+00  2.27090699e+00
  2.28560890e+00  2.28693612e+00  2.28848775e+00  2.29680398e+00
  2.30639785e+00  2.32326460e+00  2.33443294e+00  2.34701861e+00
  2.34993183e+00  2.36399073e+00  2.37028885e+00  2.39436902e+00
  2.39489499e+00  2.41465835e+00  2.41877402e+00  2.42483046e+00
  2.45378296e+00  2.45836030e+00  2.46373532e+00  2.48946353e+00
  2.50190624e+00  2.51540804e+00  2.52518764e+00  2.54653624e+00
  2.54877985e+00  2.55067408e+00  2.56399514e+00  2.56990176e+00
  2.57371391e+00  2.57707088e+00  2.58820015e+00  2.59300052e+00
  2.59587876e+00  2.60108300e+00  2.61569154e+00  2.62077665e+00
  2.62685843e+00  2.63135546e+00  2.63799438e+00  2.64344300e+00
  2.65386681e+00  2.65682488e+00  2.66311579e+00  2.66864125e+00
  2.67561541e+00  2.68082701e+00  2.68926181e+00  2.69278399e+00
  2.70193157e+00  2.70401286e+00  2.70850218e+00  2.72064038e+00
  2.72466095e+00  2.73573957e+00  2.74020726e+00  2.74432139e+00
  2.75178358e+00  2.75314600e+00  2.76221298e+00  2.77010656e+00
  2.77209063e+00  2.77472690e+00  2.78502303e+00  2.78918613e+00
  2.79613213e+00  2.80512688e+00  2.81100163e+00  2.81248979e+00
  2.81381381e+00  2.82182130e+00  2.82730094e+00  2.83238503e+00
  2.84181018e+00  2.84545008e+00  2.85649397e+00  2.85677861e+00
  2.86787426e+00  2.87462578e+00  2.88285424e+00  2.89110110e+00
  2.89860850e+00  2.90312305e+00  2.91009058e+00  2.91096319e+00
  2.92743195e+00  2.93112828e+00  2.94129878e+00  2.94463616e+00
  2.95213931e+00  2.95680152e+00  2.96384024e+00  2.96920917e+00
  2.98275496e+00  2.99812140e+00  3.00111481e+00  3.00272061e+00
  3.00792112e+00  3.01619345e+00  3.02752900e+00  3.03175957e+00
  3.04661470e+00  3.04891308e+00  3.05290911e+00  3.05858885e+00
  3.06694137e+00  3.07354592e+00  3.07689759e+00  3.09033750e+00
  3.09611340e+00  3.09649466e+00  3.10446781e+00  3.11445885e+00
  3.12240362e+00  3.13064270e+00  3.13934864e+00  3.14322350e+00
  3.15043228e+00  3.15438702e+00  3.15713831e+00  3.16441046e+00
  3.16507002e+00  3.17714865e+00  3.17789195e+00  3.18112281e+00
  3.18937537e+00  3.19421086e+00  3.19791759e+00  3.21030073e+00
  3.21177584e+00  3.22377864e+00  3.22739026e+00  3.23627745e+00
  3.24782464e+00  3.24938672e+00  3.25298263e+00  3.26485048e+00
  3.26494538e+00  3.27352029e+00  3.28143437e+00  3.28853758e+00
  3.29081413e+00  3.30024923e+00  3.30171169e+00  3.30827000e+00
  3.31592774e+00  3.32044647e+00  3.32801142e+00  3.32909065e+00
  3.33440710e+00  3.34301105e+00  3.34942405e+00  3.35571437e+00
  3.36633422e+00  3.36968393e+00  3.37227221e+00  3.38236678e+00
  3.38337653e+00  3.39113709e+00  3.40041409e+00  3.40306452e+00
  3.40565486e+00  3.41199392e+00  3.41342217e+00  3.42743378e+00
  3.43126441e+00  3.43869390e+00  3.44188650e+00  3.45132313e+00
  3.45333351e+00  3.46135832e+00  3.46288063e+00  3.46926373e+00
  3.47195600e+00  3.47299706e+00  3.48343189e+00  3.48958801e+00
  3.49365807e+00  3.50500081e+00  3.51299056e+00  3.51726682e+00
  3.53010284e+00  3.53534793e+00  3.54038906e+00  3.55147621e+00
  3.55763635e+00  3.56744904e+00  3.57514659e+00  3.58773002e+00
  3.59271727e+00  3.59641054e+00  3.60422996e+00  3.61781607e+00
  3.62511916e+00  3.63792985e+00  3.64582562e+00  3.65259919e+00
  3.66524976e+00  3.67277526e+00  3.67707072e+00  3.68311991e+00
  3.70906166e+00  3.71746381e+00  3.72274567e+00  3.73701648e+00
  3.74735930e+00  3.76402146e+00  3.78496853e+00  3.79489787e+00
  3.80222715e+00  3.81809149e+00  3.82711828e+00  3.84109997e+00
  3.85496132e+00  3.86337112e+00  3.87343602e+00  3.88101631e+00
  3.88910852e+00  3.89649204e+00  3.90074861e+00  3.90332131e+00
  3.91714986e+00  3.92783236e+00  3.94165418e+00  3.94710259e+00
  3.95327869e+00  3.96875101e+00  3.97909577e+00  4.00705161e+00
  4.01563729e+00  4.04152993e+00  4.05184562e+00  4.06146082e+00
  4.06877662e+00  4.07595241e+00  4.08521160e+00  4.09658597e+00
  4.11484192e+00  4.12365342e+00  4.12826580e+00  4.14848470e+00
  4.15021502e+00  4.15567517e+00  4.16801670e+00  4.17641638e+00
  4.17883313e+00  4.18688801e+00  4.19802329e+00  4.20013880e+00
  4.20903027e+00  4.21415745e+00  4.21918504e+00  4.22385867e+00
  4.24588783e+00  4.25163241e+00  4.26505351e+00  4.29248390e+00
  4.29972697e+00  4.31349370e+00  4.34389030e+00  4.36461365e+00
  4.37079454e+00  4.38244219e+00  4.39454076e+00  4.40836942e+00
  4.42124224e+00  4.43122320e+00  4.44200988e+00  4.45347556e+00
  4.46704086e+00  4.48915659e+00  4.52050611e+00  4.53164626e+00
  4.53997813e+00  4.56389425e+00  4.58166928e+00  4.58742564e+00
  4.59985696e+00  4.60132323e+00  4.60347763e+00  4.63205808e+00
  4.65762157e+00  4.66283837e+00  4.69094906e+00  4.70777432e+00
  4.72300468e+00  4.74625106e+00  4.77648846e+00  4.78462131e+00
  4.79588885e+00  4.81234064e+00  4.82632022e+00  4.84734007e+00
  4.87919201e+00  4.89440302e+00  4.91708800e+00  4.92748000e+00
  4.93495938e+00  4.95124414e+00  4.97182614e+00  4.98437307e+00
  5.03682045e+00  5.06430495e+00  5.06697084e+00  5.08860284e+00
  5.10047591e+00  5.14890230e+00  5.15682790e+00  5.16723819e+00
  5.17425479e+00  5.19629992e+00  5.20657068e+00  5.23297435e+00
  5.24735381e+00  5.25708892e+00  5.25779590e+00  5.28520403e+00
  5.32212639e+00  5.33629749e+00  5.35809247e+00  5.36176644e+00
  5.38926407e+00  5.42277835e+00  5.45494796e+00  5.46266374e+00
  5.49327455e+00  5.49708199e+00  5.51267995e+00  5.54011804e+00
  5.54479572e+00  5.55668101e+00  5.59323498e+00  5.61023257e+00
  5.64750572e+00  5.71558330e+00  5.75172149e+00  5.76028277e+00
  5.78418279e+00  5.80728944e+00  5.80956945e+00  5.82168215e+00
  5.85803242e+00  5.86829550e+00  5.94019089e+00  5.95898992e+00
  5.98128328e+00  6.12005451e+00  6.14437527e+00  6.20262639e+00
  6.27959457e+00  6.29247050e+00  6.36396511e+00  6.37807699e+00
  6.38643410e+00  6.41184080e+00  6.43481165e+00  6.43869132e+00
  6.48383799e+00  6.49243270e+00  6.60000446e+00  6.62712991e+00
  6.65773440e+00  6.68337078e+00  6.70304979e+00  6.70789055e+00
  6.73855750e+00  6.79049767e+00  6.82702675e+00  6.83478418e+00
  6.84529016e+00  6.86280811e+00  6.87892419e+00  6.89139758e+00
  6.96127409e+00  6.99099982e+00  7.11045137e+00  7.11994312e+00
  7.14655447e+00  7.21236040e+00  7.27240523e+00  7.38321297e+00
  7.44844637e+00  7.49740217e+00  2.23177630e+01  2.23712656e+01
  2.25676127e+01  2.26182034e+01  2.26915822e+01  2.26958085e+01
  2.27330763e+01  2.28170956e+01  2.28510703e+01  2.29043454e+01
  2.29427694e+01  2.29539459e+01  2.30386003e+01  2.30878658e+01
  2.31210968e+01  2.33033409e+01  2.33635324e+01  2.34913845e+01
  2.35406805e+01  2.37951731e+01  4.39808463e+01  4.40163609e+01
  4.40648450e+01  4.40946682e+01  4.46091614e+01]
nelec by numeric integration = 172.0001527571067
    CPU time for vxc     86.28 sec, wall time      4.78 sec
    CPU time for df vj and vk    244.48 sec, wall time     15.57 sec
E1 = -5665.799255987063  Ecoul = 2609.3920892511733  Exc = -154.64710759667534
cycle= 3 E= -1144.6134261753  delta_E= -3.95e-10  |g|= 2.75e-06  |ddm|= 9.25e-05
    CPU time for cycle= 3    336.30 sec, wall time     20.75 sec
  HOMO = -0.216364447012742  LUMO = -0.0913038312000422
  mo_energy =
[-1.92869718e+01 -1.92725885e+01 -1.92656819e+01 -1.92130927e+01
 -1.91538960e+01 -1.03780643e+01 -1.03248372e+01 -1.03216815e+01
 -1.03125434e+01 -1.02871661e+01 -1.02853274e+01 -1.02835602e+01
 -1.02785623e+01 -1.02673270e+01 -1.02668110e+01 -1.02642120e+01
 -1.02626632e+01 -1.02621174e+01 -1.02619185e+01 -1.02593078e+01
 -1.02517870e+01 -1.02461754e+01 -1.02456990e+01 -1.02296001e+01
 -1.02176640e+01 -1.15241860e+00 -1.14619700e+00 -1.11821795e+00
 -1.06036041e+00 -1.02196860e+00 -9.27636453e-01 -9.04209422e-01
 -8.89810818e-01 -8.40442169e-01 -8.17468166e-01 -8.10030337e-01
 -7.97603402e-01 -7.71432929e-01 -7.62420428e-01 -7.10771454e-01
 -6.88542657e-01 -6.79934059e-01 -6.72606796e-01 -6.48414687e-01
 -6.30251345e-01 -6.16010257e-01 -6.01721865e-01 -5.72634895e-01
 -5.64656095e-01 -5.52430191e-01 -5.39890069e-01 -5.26821481e-01
 -5.15357560e-01 -5.12570588e-01 -5.02168930e-01 -4.92583794e-01
 -4.89808740e-01 -4.86966676e-01 -4.82728966e-01 -4.71943201e-01
 -4.63561075e-01 -4.62124623e-01 -4.48577186e-01 -4.45730779e-01
 -4.37101239e-01 -4.35472223e-01 -4.23294917e-01 -4.08063084e-01
 -4.06247107e-01 -4.02754223e-01 -4.01150765e-01 -3.94871808e-01
 -3.91900731e-01 -3.80402531e-01 -3.79087393e-01 -3.59309523e-01
 -3.53287553e-01 -3.52842932e-01 -3.16014348e-01 -3.01899945e-01
 -2.97194179e-01 -2.91865959e-01 -2.81762189e-01 -2.57326850e-01
 -2.41475622e-01 -2.16364447e-01 -9.13038312e-02 -7.62347842e-02
 -4.35129390e-02 -2.57334545e-02 -1.04137148e-02  4.41242395e-03
  2.20645216e-02  3.13293021e-02  3.23356703e-02  4.72915459e-02
  5.13601557e-02  5.63995886e-02  6.98737402e-02  7.27991164e-02
  8.08712720e-02  8.58883928e-02  9.75719073e-02  1.01247968e-01
  1.09819467e-01  1.13271406e-01  1.21604295e-01  1.26422261e-01
  1.30061838e-01  1.32570021e-01  1.39144143e-01  1.50254416e-01
  1.63169542e-01  1.69527953e-01  1.73627122e-01  1.80719182e-01
  1.87242885e-01  1.88928431e-01  1.92269165e-01  1.94770299e-01
  1.96205778e-01  2.00558078e-01  2.03870093e-01  2.14375262e-01
  2.16353207e-01  2.20795602e-01  2.23088906e-01  2.28570667e-01
  2.31244115e-01  2.35768838e-01  2.39236462e-01  2.46680421e-01
  2.51785909e-01  2.54367736e-01  2.57028508e-01  2.66356106e-01
  2.69094320e-01  2.69704742e-01  2.75956010e-01  2.79191708e-01
  2.86930006e-01  2.91026567e-01  2.99668491e-01  3.01485467e-01
  3.06111438e-01  3.14341204e-01  3.18290165e-01  3.23005146e-01
  3.28448967e-01  3.33854387e-01  3.34476470e-01  3.38988931e-01
  3.40876234e-01  3.43044007e-01  3.47354939e-01  3.52206163e-01
  3.54158640e-01  3.57212930e-01  3.62203352e-01  3.64643852e-01
  3.67135293e-01  3.68097809e-01  3.73882353e-01  3.80104285e-01
  3.85581631e-01  3.90214738e-01  3.98622181e-01  4.01021419e-01
  4.05081928e-01  4.10552783e-01  4.18336371e-01  4.23369455e-01
  4.24605885e-01  4.27341808e-01  4.33711813e-01  4.38770003e-01
  4.40989684e-01  4.43399939e-01  4.46972924e-01  4.53330471e-01
  4.55690460e-01  4.56629752e-01  4.62163071e-01  4.67641365e-01
  4.71258927e-01  4.78107124e-01  4.79992501e-01  4.85174799e-01
  4.89480136e-01  4.94059846e-01  4.99764449e-01  5.02800726e-01
  5.08292508e-01  5.10831244e-01  5.20357805e-01  5.23458744e-01
  5.35584773e-01  5.38429555e-01  5.40760275e-01  5.46175046e-01
  5.50521305e-01  5.60543903e-01  5.64434869e-01  5.71738507e-01
  5.75062723e-01  5.85991232e-01  5.95147952e-01  6.05658315e-01
  6.11070113e-01  6.24547922e-01  6.26038653e-01  6.31501413e-01
  6.43232977e-01  6.43940120e-01  6.47946482e-01  6.55664062e-01
  6.59466056e-01  6.62449320e-01  6.65447930e-01  6.67293332e-01
  6.69188860e-01  6.71914669e-01  6.77980719e-01  6.81467736e-01
  6.90549245e-01  6.93977196e-01  7.00464279e-01  7.02845090e-01
  7.06409403e-01  7.17945573e-01  7.22045780e-01  7.30429137e-01
  7.33443856e-01  7.34997631e-01  7.45730226e-01  7.48962909e-01
  7.54772300e-01  7.55281224e-01  7.60675498e-01  7.66992439e-01
  7.75604713e-01  7.77792789e-01  7.83218333e-01  7.87161142e-01
  7.91292223e-01  7.93182202e-01  8.06220773e-01  8.13033080e-01
  8.15136934e-01  8.22294029e-01  8.26452503e-01  8.35508748e-01
  8.39349755e-01  8.45156539e-01  8.48663338e-01  8.64198970e-01
  8.66037219e-01  8.70659744e-01  8.75857840e-01  8.76356556e-01
  8.84624010e-01  8.89391663e-01  8.94916591e-01  9.01020603e-01
  9.02384698e-01  9.12464385e-01  9.17726460e-01  9.27212602e-01
  9.29128982e-01  9.38500087e-01  9.46441658e-01  9.56086567e-01
  9.65296962e-01  9.80039642e-01  9.91404221e-01  1.00097944e+00
  1.01142006e+00  1.01528260e+00  1.02093083e+00  1.02772232e+00
  1.03305459e+00  1.04253474e+00  1.05267419e+00  1.07379657e+00
  1.07805368e+00  1.08169372e+00  1.09228545e+00  1.09992970e+00
  1.10430954e+00  1.11140214e+00  1.11630358e+00  1.12388809e+00
  1.12878261e+00  1.13368175e+00  1.14028700e+00  1.15339137e+00
  1.15498116e+00  1.17608404e+00  1.17863267e+00  1.19181891e+00
  1.19327932e+00  1.21016124e+00  1.21852998e+00  1.22209645e+00
  1.22661722e+00  1.23375109e+00  1.23896884e+00  1.24428708e+00
  1.24862157e+00  1.25434899e+00  1.25843073e+00  1.27058393e+00
  1.28225151e+00  1.29668882e+00  1.30200727e+00  1.30616109e+00
  1.31630190e+00  1.31933151e+00  1.32600798e+00  1.33069065e+00
  1.33753186e+00  1.34436984e+00  1.37026501e+00  1.37533102e+00
  1.38679834e+00  1.39256370e+00  1.40108659e+00  1.40911210e+00
  1.41286886e+00  1.41896088e+00  1.42664319e+00  1.43767664e+00
  1.44883569e+00  1.45560750e+00  1.46179229e+00  1.46501439e+00
  1.47565727e+00  1.47773139e+00  1.48426089e+00  1.49574615e+00
  1.49770010e+00  1.50297184e+00  1.50957594e+00  1.51471480e+00
  1.52956064e+00  1.53432074e+00  1.53867636e+00  1.54519727e+00
  1.55798389e+00  1.56174702e+00  1.56754310e+00  1.57760084e+00
  1.58651598e+00  1.59266280e+00  1.60173741e+00  1.60627350e+00
  1.60972690e+00  1.61648721e+00  1.62964507e+00  1.63532491e+00
  1.64079256e+00  1.64752367e+00  1.65276275e+00  1.65542972e+00
  1.66588789e+00  1.66829023e+00  1.66934212e+00  1.68041128e+00
  1.68331956e+00  1.68749093e+00  1.69536926e+00  1.70426068e+00
  1.71132323e+00  1.72476272e+00  1.73114239e+00  1.73736041e+00
  1.73856544e+00  1.74543767e+00  1.75296675e+00  1.75890162e+00
  1.76813089e+00  1.77695170e+00  1.80030272e+00  1.80801576e+00
  1.82013046e+00  1.82584960e+00  1.83101870e+00  1.83666823e+00
  1.84568258e+00  1.85472576e+00  1.86355942e+00  1.86548490e+00
  1.87285510e+00  1.88710892e+00  1.89176898e+00  1.89592648e+00
  1.90537960e+00  1.91695279e+00  1.92215855e+00  1.92584801e+00
  1.94755031e+00  1.95857347e+00  1.96482307e+00  1.97800041e+00
  1.97932412e+00  1.99784520e+00  2.00261757e+00  2.00721545e+00
  2.01604144e+00  2.02937067e+00  2.03867147e+00  2.03985686e+00
  2.04868206e+00  2.05704960e+00  2.06873422e+00  2.07460781e+00
  2.09020345e+00  2.09564222e+00  2.09767241e+00  2.10282142e+00
  2.11194325e+00  2.11820271e+00  2.12479578e+00  2.13604771e+00
  2.14374138e+00  2.15044597e+00  2.15841516e+00  2.16326045e+00
  2.17163793e+00  2.18628998e+00  2.19542560e+00  2.19740814e+00
  2.20640237e+00  2.21252050e+00  2.21588204e+00  2.22759745e+00
  2.23710916e+00  2.25214634e+00  2.26116405e+00  2.27090705e+00
  2.28560889e+00  2.28693619e+00  2.28848777e+00  2.29680398e+00
  2.30639792e+00  2.32326467e+00  2.33443299e+00  2.34701866e+00
  2.34993188e+00  2.36399082e+00  2.37028890e+00  2.39436911e+00
  2.39489504e+00  2.41465843e+00  2.41877405e+00  2.42483051e+00
  2.45378299e+00  2.45836024e+00  2.46373538e+00  2.48946360e+00
  2.50190632e+00  2.51540804e+00  2.52518763e+00  2.54653634e+00
  2.54877991e+00  2.55067416e+00  2.56399523e+00  2.56990182e+00
  2.57371399e+00  2.57707091e+00  2.58820023e+00  2.59300056e+00
  2.59587885e+00  2.60108307e+00  2.61569154e+00  2.62077670e+00
  2.62685844e+00  2.63135553e+00  2.63799441e+00  2.64344305e+00
  2.65386684e+00  2.65682491e+00  2.66311585e+00  2.66864130e+00
  2.67561547e+00  2.68082703e+00  2.68926185e+00  2.69278407e+00
  2.70193167e+00  2.70401291e+00  2.70850222e+00  2.72064045e+00
  2.72466102e+00  2.73573964e+00  2.74020734e+00  2.74432142e+00
  2.75178366e+00  2.75314604e+00  2.76221302e+00  2.77010660e+00
  2.77209071e+00  2.77472699e+00  2.78502312e+00  2.78918615e+00
  2.79613214e+00  2.80512697e+00  2.81100166e+00  2.81248983e+00
  2.81381390e+00  2.82182137e+00  2.82730100e+00  2.83238505e+00
  2.84181022e+00  2.84545013e+00  2.85649403e+00  2.85677871e+00
  2.86787436e+00  2.87462583e+00  2.88285435e+00  2.89110116e+00
  2.89860856e+00  2.90312313e+00  2.91009066e+00  2.91096324e+00
  2.92743202e+00  2.93112831e+00  2.94129882e+00  2.94463620e+00
  2.95213939e+00  2.95680159e+00  2.96384025e+00  2.96920926e+00
  2.98275502e+00  2.99812145e+00  3.00111486e+00  3.00272066e+00
  3.00792117e+00  3.01619350e+00  3.02752910e+00  3.03175966e+00
  3.04661479e+00  3.04891317e+00  3.05290918e+00  3.05858893e+00
  3.06694141e+00  3.07354592e+00  3.07689762e+00  3.09033748e+00
  3.09611346e+00  3.09649474e+00  3.10446790e+00  3.11445894e+00
  3.12240370e+00  3.13064272e+00  3.13934867e+00  3.14322357e+00
  3.15043230e+00  3.15438712e+00  3.15713839e+00  3.16441053e+00
  3.16507006e+00  3.17714872e+00  3.17789200e+00  3.18112286e+00
  3.18937541e+00  3.19421087e+00  3.19791763e+00  3.21030078e+00
  3.21177592e+00  3.22377866e+00  3.22739034e+00  3.23627750e+00
  3.24782471e+00  3.24938675e+00  3.25298272e+00  3.26485055e+00
  3.26494543e+00  3.27352030e+00  3.28143443e+00  3.28853765e+00
  3.29081417e+00  3.30024933e+00  3.30171175e+00  3.30827010e+00
  3.31592779e+00  3.32044654e+00  3.32801150e+00  3.32909071e+00
  3.33440720e+00  3.34301115e+00  3.34942412e+00  3.35571439e+00
  3.36633429e+00  3.36968403e+00  3.37227225e+00  3.38236683e+00
  3.38337658e+00  3.39113714e+00  3.40041415e+00  3.40306460e+00
  3.40565492e+00  3.41199393e+00  3.41342220e+00  3.42743382e+00
  3.43126448e+00  3.43869397e+00  3.44188651e+00  3.45132322e+00
  3.45333356e+00  3.46135833e+00  3.46288068e+00  3.46926375e+00
  3.47195604e+00  3.47299714e+00  3.48343199e+00  3.48958804e+00
  3.49365815e+00  3.50500090e+00  3.51299068e+00  3.51726691e+00
  3.53010295e+00  3.53534798e+00  3.54038915e+00  3.55147623e+00
  3.55763642e+00  3.56744911e+00  3.57514664e+00  3.58773010e+00
  3.59271735e+00  3.59641062e+00  3.60423005e+00  3.61781618e+00
  3.62511924e+00  3.63792993e+00  3.64582570e+00  3.65259924e+00
  3.66524987e+00  3.67277532e+00  3.67707084e+00  3.68311999e+00
  3.70906170e+00  3.71746376e+00  3.72274566e+00  3.73701655e+00
  3.74735938e+00  3.76402152e+00  3.78496858e+00  3.79489795e+00
  3.80222722e+00  3.81809159e+00  3.82711836e+00  3.84110007e+00
  3.85496143e+00  3.86337119e+00  3.87343612e+00  3.88101643e+00
  3.88910861e+00  3.89649202e+00  3.90074871e+00  3.90332138e+00
  3.91714986e+00  3.92783240e+00  3.94165418e+00  3.94710263e+00
  3.95327876e+00  3.96875108e+00  3.97909586e+00  4.00705166e+00
  4.01563739e+00  4.04153000e+00  4.05184558e+00  4.06146083e+00
  4.06877669e+00  4.07595244e+00  4.08521165e+00  4.09658607e+00
  4.11484200e+00  4.12365352e+00  4.12826590e+00  4.14848483e+00
  4.15021512e+00  4.15567519e+00  4.16801670e+00  4.17641645e+00
  4.17883321e+00  4.18688812e+00  4.19802342e+00  4.20013888e+00
  4.20903039e+00  4.21415756e+00  4.21918516e+00  4.22385878e+00
  4.24588794e+00  4.25163237e+00  4.26505361e+00  4.29248402e+00
  4.29972708e+00  4.31349375e+00  4.34389040e+00  4.36461375e+00
  4.37079464e+00  4.38244226e+00  4.39454085e+00  4.40836948e+00
  4.42124233e+00  4.43122328e+00  4.44200998e+00  4.45347562e+00
  4.46704092e+00  4.48915665e+00  4.52050604e+00  4.53164631e+00
  4.53997816e+00  4.56389435e+00  4.58166930e+00  4.58742570e+00
  4.59985706e+00  4.60132334e+00  4.60347773e+00  4.63205811e+00
  4.65762167e+00  4.66283848e+00  4.69094918e+00  4.70777434e+00
  4.72300478e+00  4.74625117e+00  4.77648852e+00  4.78462136e+00
  4.79588889e+00  4.81234077e+00  4.82632033e+00  4.84734011e+00
  4.87919203e+00  4.89440302e+00  4.91708805e+00  4.92748014e+00
  4.93495940e+00  4.95124422e+00  4.97182619e+00  4.98437313e+00
  5.03682054e+00  5.06430494e+00  5.06697097e+00  5.08860289e+00
  5.10047595e+00  5.14890227e+00  5.15682802e+00  5.16723829e+00
  5.17425492e+00  5.19629995e+00  5.20657067e+00  5.23297435e+00
  5.24735370e+00  5.25708893e+00  5.25779581e+00  5.28520397e+00
  5.32212647e+00  5.33629757e+00  5.35809253e+00  5.36176642e+00
  5.38926416e+00  5.42277844e+00  5.45494801e+00  5.46266363e+00
  5.49327452e+00  5.49708201e+00  5.51268000e+00  5.54011812e+00
  5.54479576e+00  5.55668106e+00  5.59323503e+00  5.61023243e+00
  5.64750578e+00  5.71558339e+00  5.75172147e+00  5.76028286e+00
  5.78418284e+00  5.80728942e+00  5.80956944e+00  5.82168218e+00
  5.85803249e+00  5.86829550e+00  5.94019096e+00  5.95898994e+00
  5.98128322e+00  6.12005436e+00  6.14437524e+00  6.20262643e+00
  6.27959455e+00  6.29247048e+00  6.36396504e+00  6.37807688e+00
  6.38643408e+00  6.41184063e+00  6.43481150e+00  6.43869121e+00
  6.48383790e+00  6.49243274e+00  6.60000436e+00  6.62712997e+00
  6.65773429e+00  6.68337070e+00  6.70304973e+00  6.70789038e+00
  6.73855744e+00  6.79049753e+00  6.82702672e+00  6.83478420e+00
  6.84529007e+00  6.86280800e+00  6.87892425e+00  6.89139764e+00
  6.96127404e+00  6.99099965e+00  7.11045129e+00  7.11994301e+00
  7.14655435e+00  7.21236033e+00  7.27240509e+00  7.38321295e+00
  7.44844643e+00  7.49740223e+00  2.23177632e+01  2.23712657e+01
  2.25676127e+01  2.26182036e+01  2.26915821e+01  2.26958087e+01
  2.27330763e+01  2.28170957e+01  2.28510704e+01  2.29043456e+01
  2.29427695e+01  2.29539460e+01  2.30386004e+01  2.30878660e+01
  2.31210968e+01  2.33033410e+01  2.33635326e+01  2.34913847e+01
  2.35406805e+01  2.37951733e+01  4.39808462e+01  4.40163606e+01
  4.40648449e+01  4.40946680e+01  4.46091614e+01]
nelec by numeric integration = 172.00015275709046
    CPU time for vxc     83.16 sec, wall time      4.69 sec
    CPU time for df vj and vk    241.84 sec, wall time     15.20 sec
E1 = -5665.799241201701  Ecoul = 2609.392074865759  Exc = -154.647107996621
cycle= 4 E= -1144.61342617529  delta_E= 1.36e-12  |g|= 3.65e-07  |ddm|= 4.28e-06
    CPU time for cycle= 4    333.50 sec, wall time     20.55 sec
  HOMO = -0.21636443944834  LUMO = -0.0913038224744469
  mo_energy =
[-1.92869719e+01 -1.92725886e+01 -1.92656818e+01 -1.92130925e+01
 -1.91538961e+01 -1.03780643e+01 -1.03248373e+01 -1.03216815e+01
 -1.03125434e+01 -1.02871662e+01 -1.02853273e+01 -1.02835602e+01
 -1.02785623e+01 -1.02673269e+01 -1.02668109e+01 -1.02642119e+01
 -1.02626631e+01 -1.02621174e+01 -1.02619186e+01 -1.02593078e+01
 -1.02517870e+01 -1.02461753e+01 -1.02456990e+01 -1.02296000e+01
 -1.02176639e+01 -1.15241862e+00 -1.14619704e+00 -1.11821793e+00
 -1.06036038e+00 -1.02196861e+00 -9.27636431e-01 -9.04209421e-01
 -8.89810791e-01 -8.40442145e-01 -8.17468134e-01 -8.10030326e-01
 -7.97603385e-01 -7.71432901e-01 -7.62420407e-01 -7.10771442e-01
 -6.88542640e-01 -6.79934053e-01 -6.72606784e-01 -6.48414684e-01
 -6.30251321e-01 -6.16010249e-01 -6.01721853e-01 -5.72634877e-01
 -5.64656083e-01 -5.52430186e-01 -5.39890057e-01 -5.26821459e-01
 -5.15357545e-01 -5.12570573e-01 -5.02168916e-01 -4.92583775e-01
 -4.89808749e-01 -4.86966672e-01 -4.82728944e-01 -4.71943188e-01
 -4.63561055e-01 -4.62124611e-01 -4.48577173e-01 -4.45730759e-01
 -4.37101229e-01 -4.35472212e-01 -4.23294914e-01 -4.08063061e-01
 -4.06247084e-01 -4.02754200e-01 -4.01150740e-01 -3.94871791e-01
 -3.91900723e-01 -3.80402516e-01 -3.79087393e-01 -3.59309515e-01
 -3.53287545e-01 -3.52842927e-01 -3.16014299e-01 -3.01899908e-01
 -2.97194149e-01 -2.91865943e-01 -2.81762177e-01 -2.57326828e-01
 -2.41475631e-01 -2.16364439e-01 -9.13038225e-02 -7.62347575e-02
 -4.35129140e-02 -2.57334554e-02 -1.04137111e-02  4.41245355e-03
  2.20645232e-02  3.13293086e-02  3.23356840e-02  4.72915504e-02
  5.13601625e-02  5.63996043e-02  6.98737463e-02  7.27991236e-02
  8.08712751e-02  8.58883969e-02  9.75719132e-02  1.01247974e-01
  1.09819476e-01  1.13271405e-01  1.21604308e-01  1.26422271e-01
  1.30061847e-01  1.32570034e-01  1.39144150e-01  1.50254424e-01
  1.63169551e-01  1.69527958e-01  1.73627134e-01  1.80719189e-01
  1.87242894e-01  1.88928435e-01  1.92269177e-01  1.94770308e-01
  1.96205787e-01  2.00558093e-01  2.03870105e-01  2.14375268e-01
  2.16353210e-01  2.20795610e-01  2.23088915e-01  2.28570672e-01
  2.31244121e-01  2.35768846e-01  2.39236475e-01  2.46680427e-01
  2.51785921e-01  2.54367748e-01  2.57028521e-01  2.66356113e-01
  2.69094331e-01  2.69704751e-01  2.75956019e-01  2.79191716e-01
  2.86930018e-01  2.91026578e-01  2.99668499e-01  3.01485478e-01
  3.06111447e-01  3.14341213e-01  3.18290179e-01  3.23005159e-01
  3.28448975e-01  3.33854396e-01  3.34476477e-01  3.38988939e-01
  3.40876246e-01  3.43044016e-01  3.47354947e-01  3.52206173e-01
  3.54158646e-01  3.57212931e-01  3.62203362e-01  3.64643861e-01
  3.67135312e-01  3.68097822e-01  3.73882364e-01  3.80104298e-01
  3.85581635e-01  3.90214747e-01  3.98622191e-01  4.01021429e-01
  4.05081938e-01  4.10552791e-01  4.18336380e-01  4.23369462e-01
  4.24605895e-01  4.27341821e-01  4.33711829e-01  4.38770010e-01
  4.40989697e-01  4.43399952e-01  4.46972931e-01  4.53330480e-01
  4.55690471e-01  4.56629759e-01  4.62163082e-01  4.67641376e-01
  4.71258936e-01  4.78107130e-01  4.79992519e-01  4.85174806e-01
  4.89480149e-01  4.94059860e-01  4.99764464e-01  5.02800735e-01
  5.08292516e-01  5.10831254e-01  5.20357804e-01  5.23458745e-01
  5.35584778e-01  5.38429561e-01  5.40760281e-01  5.46175057e-01
  5.50521314e-01  5.60543909e-01  5.64434876e-01  5.71738511e-01
  5.75062736e-01  5.85991240e-01  5.95147964e-01  6.05658323e-01
  6.11070118e-01  6.24547930e-01  6.26038659e-01  6.31501423e-01
  6.43232988e-01  6.43940130e-01  6.47946491e-01  6.55664079e-01
  6.59466070e-01  6.62449338e-01  6.65447947e-01  6.67293343e-01
  6.69188874e-01  6.71914682e-01  6.77980729e-01  6.81467750e-01
  6.90549259e-01  6.93977204e-01  7.00464297e-01  7.02845103e-01
  7.06409413e-01  7.17945583e-01  7.22045793e-01  7.30429150e-01
  7.33443865e-01  7.34997642e-01  7.45730233e-01  7.48962911e-01
  7.54772308e-01  7.55281237e-01  7.60675509e-01  7.66992451e-01
  7.75604722e-01  7.77792799e-01  7.83218339e-01  7.87161158e-01
  7.91292234e-01  7.93182209e-01  8.06220780e-01  8.13033090e-01
  8.15136944e-01  8.22294039e-01  8.26452509e-01  8.35508758e-01
  8.39349763e-01  8.45156548e-01  8.48663349e-01  8.64198979e-01
  8.66037224e-01  8.70659757e-01  8.75857848e-01  8.76356568e-01
  8.84624019e-01  8.89391672e-01  8.94916603e-01  9.01020612e-01
  9.02384704e-01  9.12464399e-01  9.17726468e-01  9.27212614e-01
  9.29128998e-01  9.38500100e-01  9.46441665e-01  9.56086579e-01
  9.65296972e-01  9.80039653e-01  9.91404238e-01  1.00097946e+00
  1.01142008e+00  1.01528261e+00  1.02093084e+00  1.02772234e+00
  1.03305459e+00  1.04253475e+00  1.05267420e+00  1.07379658e+00
  1.07805369e+00  1.08169374e+00  1.09228547e+00  1.09992972e+00
  1.10430955e+00  1.11140216e+00  1.11630359e+00  1.12388811e+00
  1.12878262e+00  1.13368177e+00  1.14028702e+00  1.15339139e+00
  1.15498117e+00  1.17608405e+00  1.17863268e+00  1.19181893e+00
  1.19327933e+00  1.21016125e+00  1.21852999e+00  1.22209647e+00
  1.22661723e+00  1.23375111e+00  1.23896885e+00  1.24428709e+00
  1.24862158e+00  1.25434901e+00  1.25843075e+00  1.27058394e+00
  1.28225153e+00  1.29668883e+00  1.30200729e+00  1.30616111e+00
  1.31630192e+00  1.31933152e+00  1.32600799e+00  1.33069066e+00
  1.33753187e+00  1.34436985e+00  1.37026502e+00  1.37533103e+00
  1.38679835e+00  1.39256371e+00  1.40108660e+00  1.40911212e+00
  1.41286888e+00  1.41896090e+00  1.42664320e+00  1.43767666e+00
  1.44883570e+00  1.45560752e+00  1.46179231e+00  1.46501440e+00
  1.47565730e+00  1.47773141e+00  1.48426091e+00  1.49574617e+00
  1.49770011e+00  1.50297185e+00  1.50957596e+00  1.51471481e+00
  1.52956066e+00  1.53432075e+00  1.53867637e+00  1.54519727e+00
  1.55798390e+00  1.56174704e+00  1.56754310e+00  1.57760085e+00
  1.58651599e+00  1.59266280e+00  1.60173742e+00  1.60627351e+00
  1.60972692e+00  1.61648723e+00  1.62964509e+00  1.63532492e+00
  1.64079257e+00  1.64752367e+00  1.65276277e+00  1.65542973e+00
  1.66588790e+00  1.66829026e+00  1.66934213e+00  1.68041130e+00
  1.68331958e+00  1.68749095e+00  1.69536927e+00  1.70426068e+00
  1.71132325e+00  1.72476273e+00  1.73114240e+00  1.73736042e+00
  1.73856546e+00  1.74543768e+00  1.75296676e+00  1.75890163e+00
  1.76813090e+00  1.77695171e+00  1.80030273e+00  1.80801577e+00
  1.82013047e+00  1.82584961e+00  1.83101871e+00  1.83666825e+00
  1.84568260e+00  1.85472577e+00  1.86355943e+00  1.86548491e+00
  1.87285511e+00  1.88710892e+00  1.89176900e+00  1.89592649e+00
  1.90537961e+00  1.91695280e+00  1.92215855e+00  1.92584802e+00
  1.94755032e+00  1.95857349e+00  1.96482308e+00  1.97800042e+00
  1.97932414e+00  1.99784520e+00  2.00261758e+00  2.00721545e+00
  2.01604144e+00  2.02937067e+00  2.03867148e+00  2.03985687e+00
  2.04868207e+00  2.05704961e+00  2.06873423e+00  2.07460783e+00
  2.09020345e+00  2.09564222e+00  2.09767242e+00  2.10282142e+00
  2.11194327e+00  2.11820272e+00  2.12479579e+00  2.13604772e+00
  2.14374139e+00  2.15044598e+00  2.15841517e+00  2.16326047e+00
  2.17163795e+00  2.18628999e+00  2.19542561e+00  2.19740815e+00
  2.20640239e+00  2.21252052e+00  2.21588205e+00  2.22759746e+00
  2.23710916e+00  2.25214635e+00  2.26116406e+00  2.27090706e+00
  2.28560890e+00  2.28693620e+00  2.28848777e+00  2.29680399e+00
  2.30639794e+00  2.32326469e+00  2.33443301e+00  2.34701867e+00
  2.34993188e+00  2.36399083e+00  2.37028891e+00  2.39436913e+00
  2.39489506e+00  2.41465845e+00  2.41877407e+00  2.42483052e+00
  2.45378301e+00  2.45836025e+00  2.46373540e+00  2.48946362e+00
  2.50190633e+00  2.51540807e+00  2.52518765e+00  2.54653636e+00
  2.54877992e+00  2.55067417e+00  2.56399524e+00  2.56990184e+00
  2.57371399e+00  2.57707093e+00  2.58820024e+00  2.59300058e+00
  2.59587887e+00  2.60108309e+00  2.61569155e+00  2.62077671e+00
  2.62685846e+00  2.63135554e+00  2.63799442e+00  2.64344308e+00
  2.65386686e+00  2.65682493e+00  2.66311587e+00  2.66864133e+00
  2.67561549e+00  2.68082705e+00  2.68926187e+00  2.69278409e+00
  2.70193169e+00  2.70401293e+00  2.70850224e+00  2.72064047e+00
  2.72466103e+00  2.73573965e+00  2.74020735e+00  2.74432144e+00
  2.75178368e+00  2.75314606e+00  2.76221304e+00  2.77010662e+00
  2.77209074e+00  2.77472701e+00  2.78502313e+00  2.78918617e+00
  2.79613217e+00  2.80512699e+00  2.81100167e+00  2.81248985e+00
  2.81381391e+00  2.82182138e+00  2.82730101e+00  2.83238506e+00
  2.84181023e+00  2.84545014e+00  2.85649404e+00  2.85677872e+00
  2.86787437e+00  2.87462585e+00  2.88285436e+00  2.89110117e+00
  2.89860857e+00  2.90312315e+00  2.91009068e+00  2.91096325e+00
  2.92743203e+00  2.93112833e+00  2.94129884e+00  2.94463621e+00
  2.95213940e+00  2.95680161e+00  2.96384027e+00  2.96920928e+00
  2.98275504e+00  2.99812147e+00  3.00111487e+00  3.00272067e+00
  3.00792119e+00  3.01619352e+00  3.02752911e+00  3.03175967e+00
  3.04661480e+00  3.04891319e+00  3.05290920e+00  3.05858894e+00
  3.06694143e+00  3.07354594e+00  3.07689763e+00  3.09033749e+00
  3.09611347e+00  3.09649476e+00  3.10446791e+00  3.11445897e+00
  3.12240372e+00  3.13064273e+00  3.13934869e+00  3.14322359e+00
  3.15043232e+00  3.15438715e+00  3.15713842e+00  3.16441055e+00
  3.16507008e+00  3.17714874e+00  3.17789203e+00  3.18112288e+00
  3.18937543e+00  3.19421089e+00  3.19791765e+00  3.21030079e+00
  3.21177593e+00  3.22377867e+00  3.22739036e+00  3.23627752e+00
  3.24782473e+00  3.24938677e+00  3.25298274e+00  3.26485057e+00
  3.26494545e+00  3.27352032e+00  3.28143444e+00  3.28853767e+00
  3.29081420e+00  3.30024935e+00  3.30171177e+00  3.30827011e+00
  3.31592782e+00  3.32044656e+00  3.32801151e+00  3.32909072e+00
  3.33440722e+00  3.34301116e+00  3.34942414e+00  3.35571442e+00
  3.36633431e+00  3.36968403e+00  3.37227226e+00  3.38236685e+00
  3.38337660e+00  3.39113715e+00  3.40041417e+00  3.40306461e+00
  3.40565493e+00  3.41199395e+00  3.41342221e+00  3.42743384e+00
  3.43126450e+00  3.43869399e+00  3.44188654e+00  3.45132324e+00
  3.45333358e+00  3.46135835e+00  3.46288069e+00  3.46926377e+00
  3.47195606e+00  3.47299715e+00  3.48343200e+00  3.48958806e+00
  3.49365815e+00  3.50500092e+00  3.51299069e+00  3.51726694e+00
  3.53010297e+00  3.53534800e+00  3.54038917e+00  3.55147624e+00
  3.55763644e+00  3.56744912e+00  3.57514666e+00  3.58773012e+00
  3.59271737e+00  3.59641064e+00  3.60423006e+00  3.61781619e+00
  3.62511925e+00  3.63792994e+00  3.64582571e+00  3.65259926e+00
  3.66524988e+00  3.67277533e+00  3.67707084e+00  3.68312001e+00
  3.70906172e+00  3.71746379e+00  3.72274568e+00  3.73701656e+00
  3.74735939e+00  3.76402153e+00  3.78496859e+00  3.79489797e+00
  3.80222723e+00  3.81809160e+00  3.82711837e+00  3.84110008e+00
  3.85496146e+00  3.86337120e+00  3.87343613e+00  3.88101644e+00
  3.88910862e+00  3.89649204e+00  3.90074873e+00  3.90332139e+00
  3.91714988e+00  3.92783241e+00  3.94165421e+00  3.94710265e+00
  3.95327877e+00  3.96875109e+00  3.97909588e+00  4.00705167e+00
  4.01563741e+00  4.04153002e+00  4.05184561e+00  4.06146086e+00
  4.06877670e+00  4.07595246e+00  4.08521167e+00  4.09658609e+00
  4.11484202e+00  4.12365354e+00  4.12826591e+00  4.14848484e+00
  4.15021513e+00  4.15567521e+00  4.16801673e+00  4.17641648e+00
  4.17883323e+00  4.18688814e+00  4.19802343e+00  4.20013890e+00
  4.20903040e+00  4.21415759e+00  4.21918517e+00  4.22385880e+00
  4.24588796e+00  4.25163241e+00  4.26505363e+00  4.29248406e+00
  4.29972711e+00  4.31349377e+00  4.34389042e+00  4.36461376e+00
  4.37079466e+00  4.38244228e+00  4.39454087e+00  4.40836950e+00
  4.42124234e+00  4.43122330e+00  4.44201000e+00  4.45347564e+00
  4.46704093e+00  4.48915668e+00  4.52050605e+00  4.53164633e+00
  4.53997817e+00  4.56389436e+00  4.58166932e+00  4.58742571e+00
  4.59985707e+00  4.60132336e+00  4.60347775e+00  4.63205812e+00
  4.65762167e+00  4.66283850e+00  4.69094919e+00  4.70777436e+00
  4.72300479e+00  4.74625118e+00  4.77648854e+00  4.78462138e+00
  4.79588891e+00  4.81234081e+00  4.82632035e+00  4.84734012e+00
  4.87919206e+00  4.89440304e+00  4.91708807e+00  4.92748018e+00
  4.93495942e+00  4.95124423e+00  4.97182621e+00  4.98437314e+00
  5.03682055e+00  5.06430496e+00  5.06697099e+00  5.08860290e+00
  5.10047596e+00  5.14890229e+00  5.15682804e+00  5.16723831e+00
  5.17425495e+00  5.19629996e+00  5.20657070e+00  5.23297441e+00
  5.24735372e+00  5.25708894e+00  5.25779579e+00  5.28520396e+00
  5.32212647e+00  5.33629755e+00  5.35809251e+00  5.36176638e+00
  5.38926417e+00  5.42277846e+00  5.45494802e+00  5.46266365e+00
  5.49327454e+00  5.49708203e+00  5.51268001e+00  5.54011813e+00
  5.54479577e+00  5.55668108e+00  5.59323503e+00  5.61023241e+00
  5.64750581e+00  5.71558340e+00  5.75172147e+00  5.76028285e+00
  5.78418284e+00  5.80728942e+00  5.80956943e+00  5.82168217e+00
  5.85803249e+00  5.86829549e+00  5.94019093e+00  5.95898992e+00
  5.98128323e+00  6.12005434e+00  6.14437531e+00  6.20262642e+00
  6.27959455e+00  6.29247044e+00  6.36396502e+00  6.37807690e+00
  6.38643414e+00  6.41184066e+00  6.43481148e+00  6.43869116e+00
  6.48383796e+00  6.49243272e+00  6.60000444e+00  6.62712992e+00
  6.65773427e+00  6.68337066e+00  6.70304967e+00  6.70789041e+00
  6.73855744e+00  6.79049755e+00  6.82702672e+00  6.83478419e+00
  6.84529016e+00  6.86280796e+00  6.87892421e+00  6.89139759e+00
  6.96127400e+00  6.99099968e+00  7.11045137e+00  7.11994297e+00
  7.14655431e+00  7.21236038e+00  7.27240511e+00  7.38321292e+00
  7.44844639e+00  7.49740219e+00  2.23177633e+01  2.23712658e+01
  2.25676128e+01  2.26182037e+01  2.26915822e+01  2.26958088e+01
  2.27330764e+01  2.28170957e+01  2.28510704e+01  2.29043456e+01
  2.29427695e+01  2.29539460e+01  2.30386004e+01  2.30878660e+01
  2.31210968e+01  2.33033410e+01  2.33635326e+01  2.34913847e+01
  2.35406805e+01  2.37951733e+01  4.39808461e+01  4.40163607e+01
  4.40648448e+01  4.40946682e+01  4.46091613e+01]
nelec by numeric integration = 172.00015275709276
    CPU time for vxc     87.50 sec, wall time      4.80 sec
    CPU time for df vj and vk    243.62 sec, wall time     15.60 sec
E1 = -5665.799239789707  Ecoul = 2609.392073315672  Exc = -154.6471078585297
Extra cycle  E= -1144.6134261753  delta_E= -1.36e-12  |g|= 7.29e-07  |ddm|= 1.64e-06
    CPU time for scf_cycle   2218.39 sec, wall time    145.24 sec
    CPU time for SCF   2218.39 sec, wall time    145.25 sec
converged SCF energy = -1144.6134261753
SCF Done after 145.27 seconds
after SCF memory used: 6.69 GB
Converting <class 'pyscf.df.df_jk.density_fit.<locals>.DFHF'> to RHF
Converting <class 'pyscf.df.df_jk.density_fit.<locals>.DFHF'> to RHF
hdiag shape (65446,)
n_occ =  86
n_vir =  761
max_vir =  223
A_size =  65446
A_reduced_size = 19178
a_x = 0.25
beta = 0.6575
alpha = 1.54
Q-Gamma tensors building time = 0.29
after Q matrix memory used: 6.83 GB
TDDFT
|-------- In-house Developed TDDFT Starts ---------|
Residual conv = 1e-05

Number of excited states = 1
Initial guess:   sTDDFT
Preconditioner:  sTDDFT
A matrix size =  65446
setting initial guess
sTDDFT Convergence tol = 1.00e-03
sTDDFT diagonalization Converged
after  6 iterations; 0.4882 seconds
final subspace 12
max_norm =  8.32e-04
MVcost     0.3059s 62.67%
GScost     0.0632s 12.94%
subgencost 0.0600s 12.30%
subcost    0.0041s 0.84%
sTDDFT excitation energy:
[2.65910741 2.7005769 ]
new_m = 2
initial guess done

iteration 0
beginning of step 0 memory used: 6.90 GB
    CPU time for df vj and vk    484.19 sec, wall time     29.30 sec
subspace size: 2
Maximum residual norm:  4.60e-02
unconverged states [0]
sTDDFT_preconditioner conv 0.01
sTDDFT preconditioning Done
after 14 steps; 0.6945 s
final subspace 14
max_norm =  8.05e-03
initial_cost 0.0085s  1.22%
MVcost     0.3566s  51.35%
GScost     0.1025s  14.76%
subgencost 0.1537s  22.13%
subcost    0.0095s  1.36%
m & new_m 2 3

iteration 1
beginning of step 1 memory used: 6.92 GB
    CPU time for df vj and vk    242.88 sec, wall time     15.14 sec
subspace size: 3
Maximum residual norm:  1.19e-02
unconverged states [0]
sTDDFT_preconditioner conv 0.01
sTDDFT preconditioning Done
after 15 steps; 0.7055 s
final subspace 15
max_norm =  4.79e-03
initial_cost 0.0048s  0.68%
MVcost     0.3471s  49.20%
GScost     0.1099s  15.58%
subgencost 0.1752s  24.83%
subcost    0.0098s  1.39%
m & new_m 3 4

iteration 2
beginning of step 2 memory used: 6.94 GB
    CPU time for df vj and vk    242.28 sec, wall time     15.07 sec
subspace size: 4
Maximum residual norm:  8.13e-03
unconverged states [0]
sTDDFT_preconditioner conv 0.01
sTDDFT preconditioning Done
after 14 steps; 0.6633 s
final subspace 14
max_norm =  4.45e-03
initial_cost 0.0048s  0.72%
MVcost     0.3455s  52.09%
GScost     0.0972s  14.66%
subgencost 0.1528s  23.04%
subcost    0.0090s  1.35%
m & new_m 4 5

iteration 3
beginning of step 3 memory used: 6.94 GB
    CPU time for df vj and vk    241.09 sec, wall time     15.62 sec
subspace size: 5
Maximum residual norm:  1.30e-03
unconverged states [0]
sTDDFT_preconditioner conv 0.01
sTDDFT preconditioning Done
after 8 steps; 0.3297 s
final subspace 8
max_norm =  5.13e-03
initial_cost 0.0051s  1.56%
MVcost     0.2001s  60.67%
GScost     0.0376s  11.40%
subgencost 0.0564s  17.09%
subcost    0.0049s  1.48%
m & new_m 5 6

iteration 4
beginning of step 4 memory used: 6.94 GB
    CPU time for df vj and vk    241.97 sec, wall time     18.32 sec
subspace size: 6
Maximum residual norm:  3.84e-04
unconverged states [0]
sTDDFT_preconditioner conv 0.01
sTDDFT preconditioning Done
after 11 steps; 0.6284 s
final subspace 11
max_norm =  9.20e-03
initial_cost 0.0055s  0.88%
MVcost     0.4149s  66.02%
GScost     0.0621s  9.87%
subgencost 0.1002s  15.95%
subcost    0.0068s  1.09%
m & new_m 6 7

iteration 5
beginning of step 5 memory used: 6.94 GB
    CPU time for df vj and vk    237.88 sec, wall time     14.98 sec
subspace size: 7
Maximum residual norm:  1.34e-04
unconverged states [0]
sTDDFT_preconditioner conv 0.01
sTDDFT preconditioning Done
after 11 steps; 0.5326 s
final subspace 11
max_norm =  5.98e-03
initial_cost 0.0066s  1.25%
MVcost     0.3122s  58.61%
GScost     0.0630s  11.82%
subgencost 0.1014s  19.04%
subcost    0.0080s  1.50%
m & new_m 7 8

iteration 6
beginning of step 6 memory used: 6.94 GB
    CPU time for df vj and vk    240.77 sec, wall time     15.31 sec
subspace size: 8
Maximum residual norm:  5.55e-05
unconverged states [0]
sTDDFT_preconditioner conv 0.01
sTDDFT preconditioning Done
after 11 steps; 0.4818 s
final subspace 11
max_norm =  7.40e-03
initial_cost 0.0056s  1.17%
MVcost     0.2690s  55.84%
GScost     0.0618s  12.83%
subgencost 0.0998s  20.71%
subcost    0.0068s  1.41%
m & new_m 8 9

iteration 7
beginning of step 7 memory used: 6.94 GB
    CPU time for df vj and vk    238.30 sec, wall time     15.49 sec
subspace size: 9
Maximum residual norm:  2.56e-05
unconverged states [0]
sTDDFT_preconditioner conv 0.01
sTDDFT preconditioning Done
after 8 steps; 0.3173 s
final subspace 8
max_norm =  9.61e-03
initial_cost 0.0046s  1.46%
MVcost     0.1924s  60.64%
GScost     0.0351s  11.07%
subgencost 0.0556s  17.53%
subcost    0.0047s  1.49%
m & new_m 9 10

iteration 8
beginning of step 8 memory used: 6.94 GB
    CPU time for df vj and vk    245.32 sec, wall time     15.43 sec
subspace size: 10
Maximum residual norm:  7.91e-06
TDDFT precedure Done

============= TDDFT Calculation Done ==============
after 9 iterations 214.81 s
Final subspace  10
preconditioning cost 4.3714 0.02 %
max_norm =  7.91e-06
Total TDDFT memory used: 6.94 GB
Excited State energies (eV) =
 [2.83466341]

Number of excited states = 1
Initial guess:   Adiag
Preconditioner:  Adiag
A matrix size =  65446
new_m = 2
initial guess done

iteration 0
beginning of step 0 memory used: 6.90 GB
    CPU time for df vj and vk    485.81 sec, wall time     29.22 sec
subspace size: 2
Maximum residual norm:  3.55e-02
unconverged states [0]
m & new_m 2 3

iteration 1
beginning of step 1 memory used: 6.90 GB
    CPU time for df vj and vk    239.13 sec, wall time     14.97 sec
subspace size: 3
Maximum residual norm:  2.88e-02
unconverged states [0]
m & new_m 3 4

iteration 2
beginning of step 2 memory used: 6.94 GB
    CPU time for df vj and vk    238.35 sec, wall time     15.10 sec
subspace size: 4
Maximum residual norm:  2.37e-02
unconverged states [0]
m & new_m 4 5

iteration 3
beginning of step 3 memory used: 6.94 GB
    CPU time for df vj and vk    241.50 sec, wall time     15.39 sec
subspace size: 5
Maximum residual norm:  1.49e-02
unconverged states [0]
m & new_m 5 6

iteration 4
beginning of step 4 memory used: 6.94 GB
    CPU time for df vj and vk    244.22 sec, wall time     15.92 sec
subspace size: 6
Maximum residual norm:  1.05e-02
unconverged states [0]
m & new_m 6 7

iteration 5
beginning of step 5 memory used: 6.94 GB
    CPU time for df vj and vk    240.97 sec, wall time     15.25 sec
subspace size: 7
Maximum residual norm:  6.23e-03
unconverged states [0]
m & new_m 7 8

iteration 6
beginning of step 6 memory used: 6.94 GB
    CPU time for df vj and vk    243.81 sec, wall time     16.04 sec
subspace size: 8
Maximum residual norm:  2.70e-03
unconverged states [0]
m & new_m 8 9

iteration 7
beginning of step 7 memory used: 6.94 GB
    CPU time for df vj and vk    242.98 sec, wall time     15.63 sec
subspace size: 9
Maximum residual norm:  2.02e-03
unconverged states [0]
m & new_m 9 10

iteration 8
beginning of step 8 memory used: 6.94 GB
    CPU time for df vj and vk    244.07 sec, wall time     15.44 sec
subspace size: 10
Maximum residual norm:  1.71e-03
unconverged states [0]
m & new_m 10 11

iteration 9
beginning of step 9 memory used: 6.94 GB
    CPU time for df vj and vk    243.55 sec, wall time     15.28 sec
subspace size: 11
Maximum residual norm:  4.58e-03
unconverged states [0]
m & new_m 11 12

iteration 10
beginning of step 10 memory used: 6.94 GB
    CPU time for df vj and vk    243.74 sec, wall time     15.42 sec
subspace size: 12
Maximum residual norm:  4.76e-02
unconverged states [0]
m & new_m 12 13

iteration 11
beginning of step 11 memory used: 6.94 GB
    CPU time for df vj and vk    240.05 sec, wall time     15.20 sec
subspace size: 13
Maximum residual norm:  1.86e-02
unconverged states [0]
m & new_m 13 14

iteration 12
beginning of step 12 memory used: 6.94 GB
    CPU time for df vj and vk    239.71 sec, wall time     15.16 sec
subspace size: 14
Maximum residual norm:  1.06e-02
unconverged states [0]
m & new_m 14 15

iteration 13
beginning of step 13 memory used: 6.94 GB
    CPU time for df vj and vk    244.72 sec, wall time     15.35 sec
subspace size: 15
Maximum residual norm:  4.84e-03
unconverged states [0]
m & new_m 15 16

iteration 14
beginning of step 14 memory used: 6.94 GB
    CPU time for df vj and vk    237.79 sec, wall time     15.07 sec
subspace size: 16
Maximum residual norm:  2.16e-03
unconverged states [0]
m & new_m 16 17

iteration 15
beginning of step 15 memory used: 6.94 GB
    CPU time for df vj and vk    243.46 sec, wall time     15.42 sec
subspace size: 17
Maximum residual norm:  7.91e-04
unconverged states [0]
m & new_m 17 18

iteration 16
beginning of step 16 memory used: 6.94 GB
    CPU time for df vj and vk    243.06 sec, wall time     15.38 sec
subspace size: 18
Maximum residual norm:  3.31e-04
unconverged states [0]
m & new_m 18 19

iteration 17
beginning of step 17 memory used: 6.94 GB
    CPU time for df vj and vk    243.68 sec, wall time     15.29 sec
subspace size: 19
Maximum residual norm:  1.49e-04
unconverged states [0]
m & new_m 19 20

iteration 18
beginning of step 18 memory used: 6.94 GB
    CPU time for df vj and vk    243.27 sec, wall time     15.32 sec
subspace size: 20
Maximum residual norm:  6.65e-05
unconverged states [0]
m & new_m 20 21

iteration 19
beginning of step 19 memory used: 6.94 GB
    CPU time for df vj and vk    241.46 sec, wall time     14.58 sec
subspace size: 21
Maximum residual norm:  2.52e-05
unconverged states [0]
m & new_m 21 22

iteration 20
beginning of step 20 memory used: 6.94 GB
    CPU time for df vj and vk    242.50 sec, wall time     15.22 sec
subspace size: 22
Maximum residual norm:  1.24e-05
unconverged states [0]
m & new_m 22 23

iteration 21
beginning of step 21 memory used: 6.94 GB
    CPU time for df vj and vk    243.89 sec, wall time     15.51 sec
subspace size: 23
Maximum residual norm:  5.36e-06
TDDFT precedure Done

============= TDDFT Calculation Done ==============
after 22 iterations 482.37 s
Final subspace  23
preconditioning cost 0.0559 0.00 %
max_norm =  5.36e-06
Total TDDFT memory used: 6.94 GB
Excited State energies (eV) =
 [2.83466341]
xyzfile = 37_Fluorescein.xyz
checkfile = True
method = RKS
functional = pbe0
basis_set = def2-tzvp
density_fit = True
grid_level = 3
nstates = 1
pytd = False
TDA = False
TDDFT = True
dynpol = False
dynpol_omega = []
stapol = False
sTDA = False
sTDDFT = False
Truncate_test = False
truncate_virtual = 40.0
ip_options = [0, 1]
conv_tolerance = 1e-05
initial_TOL = 0.001
precond_TOL = 0.01
extrainitial = 8
max = 30
eigensolver_tol = 1e-05
memory = 50000
verbose = 5
beta = []
alpha = []
|-------- In-house Developed TDDFT Ends ----------|
