curpath /scratch/pbsjobs/job.16219444.hpc
lib.num_threads() =  20
at beginning memory used: 0.05 GB
mol.max_memory 80000


System: uname_result(system='Linux', node='compt243', release='3.10.0-1127.el7.x86_64', version='#1 SMP Tue Feb 18 16:39:12 EST 2020', machine='x86_64', processor='x86_64')  Threads 20
Python 3.7.0 (default, Aug 23 2018, 14:24:33) 
[GCC 6.3.0]
numpy 1.18.1  scipy 1.4.1
Date: Mon Aug 30 14:39:01 2021
PySCF version 1.7.4
PySCF path  /home/zzz6/.local/lib/python3.7/site-packages/pyscf

[CONFIG] conf_file None
[INPUT] verbose = 5
[INPUT] max_memory = 80000 
[INPUT] num. atoms = 72
[INPUT] num. electrons = 214
[INPUT] charge = 0
[INPUT] spin (= nelec alpha-beta = 2S) = 0
[INPUT] symmetry False subgroup None
[INPUT] Mole.unit = angstrom
[INPUT]  1 O     -6.405705841301  -0.863899275857  -1.990378724916 AA  -12.105029674586  -1.632533030579  -3.761270674251 Bohr
[INPUT]  2 C      1.184975544103   1.334287529103   0.171449795865 AA    2.239279242663   2.521438001428   0.323993158297 Bohr
[INPUT]  3 C      2.457577772460   0.455340119230   0.388469907936 AA    4.644148919767   0.860468118871   0.734101733634 Bohr
[INPUT]  4 C      0.189602260253   0.248397108052  -0.355147403893 AA    0.358296344477   0.469402504353  -0.671131327208 Bohr
[INPUT]  5 C      1.902750296618  -0.883745274074   0.960009900604 AA    3.595676944042  -1.670036531879   1.814155789013 Bohr
[INPUT]  6 C      0.401564370446  -0.958494334552   0.567278978069 AA    0.758846681526  -1.811291784251   1.072001904774 Bohr
[INPUT]  7 C      1.319237104378   2.460461171916  -0.897919275962 AA    2.492996820638   4.649597755048  -1.696821513535 Bohr
[INPUT]  8 C      3.606352735963   1.038409162329   1.240980614756 AA    6.815018979547   1.962308922040   2.345113487783 Bohr
[INPUT]  9 C     -1.193270310654   0.807329702743  -0.556089055453 AA   -2.254954079711   1.525632030411  -1.050856015673 Bohr
[INPUT] 10 C      0.679514112153   1.921377115569   1.505163242270 AA    1.284095569746   3.630876530432   2.844346300653 Bohr
[INPUT] 11 C      0.159766746857   2.463100861102  -1.921063870026 AA    0.301915395373   4.654586044664  -3.630284582146 Bohr
[INPUT] 12 C     -1.203681874532   2.145234441427  -1.286138977312 AA   -2.274629083969   4.053905567282  -2.430450425248 Bohr
[INPUT] 13 C      4.753095670752   0.014620331066   1.438857072484 AA    8.982049061576   0.027628421566   2.719045799387 Bohr
[INPUT] 14 C      4.148423210974   2.373747217553   0.703491988900 AA    7.839383717530   4.485732130124   1.329407189847 Bohr
[INPUT] 15 C     -2.315441540742   0.190831136456  -0.093992686368 AA   -4.375550369443   0.360618583941  -0.177620434947 Bohr
[INPUT] 16 C      5.435825194806  -0.480130511916   0.154746597263 AA   10.272220879195  -0.907315171569   0.292428687536 Bohr
[INPUT] 17 C      6.584071318451  -1.458356499830   0.446649257712 AA   12.442091576476  -2.755894376659   0.844044770816 Bohr
[INPUT] 18 C     -3.667421847553   0.682882347986  -0.267178247321 AA   -6.930422875121   1.290460612993  -0.504893713877 Bohr
[INPUT] 19 C      7.316359486155  -2.031441651457  -0.789606823494 AA   13.825915657697  -3.838868359288  -1.492140642491 Bohr
[INPUT] 20 C     -4.809131627418   0.137757043693   0.252862241732 AA   -9.087941672804   0.260323084309   0.477840384117 Bohr
[INPUT] 21 C     -6.177457799919   0.678101503745  -0.116077710834 AA  -11.673703387904   1.281426126733  -0.219355082642 Bohr
[INPUT] 22 C      8.025643195069  -0.940355165624  -1.609783453975 AA   15.166267612160  -1.777013722849  -3.042049847870 Bohr
[INPUT] 23 C      6.390562109591  -2.879781454260  -1.678304031199 AA   12.076412169151  -5.441998247154  -3.171534972719 Bohr
[INPUT] 24 C     -4.845587899896  -1.066007727133   1.125226113636 AA   -9.156834043310  -2.014462650952   2.126369182981 Bohr
[INPUT] 25 C     -7.010106357997  -0.447648458629  -0.764716122989 AA  -13.247181120687  -0.845932986893  -1.445104035489 Bohr
[INPUT] 26 C     -5.773867200845  -2.166630050921   0.635731975118 AA  -10.911027689206  -4.094337409493   1.201359321601 Bohr
[INPUT] 27 C     -7.153955398000  -1.623755269641   0.219426611832 AA  -13.519016409574  -3.068452752941   0.414656200804 Bohr
[INPUT] 28 C     -4.138998010490  -1.164996314238   2.270339377741 AA   -7.821572669947  -2.201523970037   4.290319633747 Bohr
[INPUT] 29 H      2.854521739587   0.256091800892  -0.626994634525 AA    5.394264304437   0.483943366433  -1.184848140825 Bohr
[INPUT] 30 H      0.579545492762  -0.033542108574  -1.356922428257 AA    1.095182258047  -0.063385398845  -2.564211761686 Bohr
[INPUT] 31 H      2.474148346821  -1.744332553711   0.572880577627 AA    4.675462767037  -3.296310796677   1.082587393797 Bohr
[INPUT] 32 H      2.016205368804  -0.903653561091   2.058889023624 AA    3.810075957917  -1.707657741951   3.890736375523 Bohr
[INPUT] 33 H      0.136154039120  -1.907897800060   0.073121481761 AA    0.257293844689  -3.605404315774   0.138179574350 Bohr
[INPUT] 34 H     -0.239487956901  -0.873652470114   1.461844321596 AA   -0.452566648675  -1.650963896566   2.762485404568 Bohr
[INPUT] 35 H      2.271261753523   2.353907724524  -1.446326964717 AA    4.292062671359   4.448240921849  -2.733161849888 Bohr
[INPUT] 36 H      1.361200875199   3.442576257715  -0.393045536374 AA    2.572296854644   6.505526290011  -0.742748418229 Bohr
[INPUT] 37 H      3.194235702786   1.230925070341   2.251549965424 AA    6.036230655574   2.326111262805   4.254812790425 Bohr
[INPUT] 38 H     -0.312899260848   2.387802504060   1.382427787261 AA   -0.591293907581   4.512292772225   2.612409904911 Bohr
[INPUT] 39 H      0.588429917387   1.150303958684   2.289696538558 AA    1.111971387362   2.173759441916   4.326899366239 Bohr
[INPUT] 40 H      1.371781860604   2.697397352976   1.875149923566 AA    2.592292019187   5.097342246251   3.543519798038 Bohr
[INPUT] 41 H      0.362289322987   1.716075789245  -2.710664320207 AA    0.684627598299   3.242913250669  -5.122413180822 Bohr
[INPUT] 42 H      0.117115719422   3.441685966803  -2.431073481958 AA    0.221316634588   6.503843884017  -4.594063069594 Bohr
[INPUT] 43 H     -1.473878352936   2.951170475977  -0.573457898202 AA   -2.785226427975   5.576903946499  -1.083678371570 Bohr
[INPUT] 44 H     -1.990602507752   2.156237233608  -2.062723270073 AA   -3.761693562523   4.074697831109  -3.897982051204 Bohr
[INPUT] 45 H      4.370107415303  -0.860210138063   1.996967678515 AA    8.258306149853  -1.625561570514   3.773721992002 Bohr
[INPUT] 46 H      5.517264123042   0.477793197053   2.093729064840 AA   10.426118149437   0.902898286611   3.956574511589 Bohr
[INPUT] 47 H      3.385379823746   3.168325978777   0.736799117990 AA    6.397440694508   5.987268373234   1.392348541821 Bohr
[INPUT] 48 H      5.009900017535   2.711291636414   1.307631290331 AA    9.467338944595   5.123598636646   2.471065010637 Bohr
[INPUT] 49 H      4.487735495522   2.284347995930  -0.343893709309 AA    8.480591006026   4.316792085508  -0.649864926556 Bohr
[INPUT] 50 H     -2.207482834688  -0.756427597167   0.445963784775 AA   -4.171537982239  -1.429440991708   0.842749414699 Bohr
[INPUT] 51 H      5.819716569576   0.383535088062  -0.419054938728 AA   10.997670439092   0.724776275598  -0.791899065342 Bohr
[INPUT] 52 H      4.687975982463  -0.973731829524  -0.493175373355 AA    8.858990685393  -1.840086476572  -0.931966387021 Bohr
[INPUT] 53 H      6.186655263950  -2.303744800412   1.042776832437 AA   11.691084075964  -4.353446733670   1.970562622348 Bohr
[INPUT] 54 H      7.327402476378  -0.952295761836   1.093964903853 AA   13.846783884814  -1.799578179454   2.067294058169 Bohr
[INPUT] 55 H     -3.795884987274   1.573781489595  -0.897117755986 AA   -7.173183026295   2.974015995245  -1.695306860299 Bohr
[INPUT] 56 H      8.101114593705  -2.707233159857  -0.395169332634 AA   15.308887885819  -5.115929227471  -0.746761811506 Bohr
[INPUT] 57 H     -6.086008046351   1.528783644318  -0.813415786613 AA  -11.500888399502   2.888982391475  -1.537133062095 Bohr
[INPUT] 58 H     -6.703779190983   1.032700284407   0.791834771869 AA  -12.668306670517   1.951520706290   1.496350854740 Bohr
[INPUT] 59 H      7.299415920089  -0.254145050585  -2.082488697027 AA   13.793896958258  -0.480264541520  -3.935333294884 Bohr
[INPUT] 60 H      8.632330096788  -1.386349399910  -2.418053944231 AA   16.312739699769  -2.619820678784  -4.569459709021 Bohr
[INPUT] 61 H      8.697906737262  -0.335129346458  -0.975138116164 AA   16.436661590434  -0.633302681110  -1.842743973175 Bohr
[INPUT] 62 H      5.610326740775  -2.260075367563  -2.156742087305 AA   10.601981009389  -4.270923465569  -4.075651866329 Bohr
[INPUT] 63 H      6.961497403706  -3.372092720593  -2.485715900452 AA   13.155323509875  -6.372331708561  -4.697322275330 Bohr
[INPUT] 64 H      5.883572330505  -3.667539992497  -1.092158837306 AA   11.118340338724  -6.930646136708  -2.063881087031 Bohr
[INPUT] 65 H     -8.012197442570  -0.066706570842  -1.032738738513 AA  -15.140858822398  -0.126057149600  -1.951593374018 Bohr
[INPUT] 66 H     -5.313996382126  -2.632490443489  -0.258698858696 AA  -10.041997789148  -4.974685963729  -0.488869991673 Bohr
[INPUT] 67 H     -5.872208053605  -2.956496165737   1.399722132207 AA  -11.096864967779  -5.586968041570   2.645091480364 Bohr
[INPUT] 68 H     -7.745732745746  -2.424815268084  -0.257051061600 AA  -14.637313523536  -4.582236759343  -0.485756106452 Bohr
[INPUT] 69 H     -7.711170184277  -1.280614857975   1.111938741708 AA  -14.571999748196  -2.420011352622   2.101259689121 Bohr
[INPUT] 70 H     -4.202444293628  -2.060683224496   2.900261291546 AA   -7.941468768698  -3.894126923783   5.480699530699 Bohr
[INPUT] 71 H     -3.490610313680  -0.351075552864   2.613079341087 AA   -6.596297500437  -0.663436643944   4.938004296413 Bohr
[INPUT] 72 H     -5.439403995661  -0.790632511717  -1.857794190521 AA  -10.278983832665  -1.494078912322  -3.510722215893 Bohr
[INPUT] ---------------- BASIS SET ---------------- 
[INPUT] l, kappa, [nprim/nctr], expnt,             c_1 c_2 ...
[INPUT] O
[INPUT] 0    0    [6    /1   ]  27032.382631      0.00021726302465
                                4052.3871392      0.0016838662199
                                922.3272271       0.0087395616265
                                261.24070989      0.035239968808
                                85.354641351      0.11153519115
                                31.035035245      0.25588953961
[INPUT] 0    0    [2    /1   ]  12.260860728      0.39768730901
                                4.9987076005      0.2462784943
[INPUT] 0    0    [1    /1   ]  1.1703108158         1
[INPUT] 0    0    [1    /1   ]  0.46474740994        1
[INPUT] 0    0    [1    /1   ]  0.18504536357        1
[INPUT] 1    0    [4    /1   ]  63.274954801      0.0060685103418
                                14.627049379      0.041912575824
                                4.4501223456      0.16153841088
                                1.5275799647      0.35706951311
[INPUT] 1    0    [1    /1   ]  0.52935117943        1
[INPUT] 1    0    [1    /1   ]  0.1747842127         1
[INPUT] 2    0    [1    /1   ]  2.314                1
[INPUT] 2    0    [1    /1   ]  0.645                1
[INPUT] 3    0    [1    /1   ]  1.428                1
[INPUT] C
[INPUT] 0    0    [6    /1   ]  13575.349682      0.00022245814352
                                2035.233368       0.0017232738252
                                463.22562359      0.0089255715314
                                131.20019598      0.035727984502
                                42.853015891      0.11076259931
                                15.584185766      0.24295627626
[INPUT] 0    0    [2    /1   ]  6.2067138508      0.41440263448
                                2.5764896527      0.23744968655
[INPUT] 0    0    [1    /1   ]  0.57696339419        1
[INPUT] 0    0    [1    /1   ]  0.22972831358        1
[INPUT] 0    0    [1    /1   ]  0.095164440028       1
[INPUT] 1    0    [4    /1   ]  34.697232244      0.0053333657805
                                7.9582622826      0.035864109092
                                2.3780826883      0.14215873329
                                0.81433208183     0.34270471845
[INPUT] 1    0    [1    /1   ]  0.28887547253        1
[INPUT] 1    0    [1    /1   ]  0.10056823671        1
[INPUT] 2    0    [1    /1   ]  1.097                1
[INPUT] 2    0    [1    /1   ]  0.318                1
[INPUT] 3    0    [1    /1   ]  0.761                1
[INPUT] H
[INPUT] 0    0    [3    /1   ]  34.061341         0.0060251978
                                5.1235746         0.045021094
                                1.1646626         0.20189726
[INPUT] 0    0    [1    /1   ]  0.32723041           1
[INPUT] 0    0    [1    /1   ]  0.10307241           1
[INPUT] 1    0    [1    /1   ]  0.8                  1

nuclear repulsion = 2664.97345107819
number of shells = 484
number of NR pGTOs = 1640
number of NR cGTOs = 1132
basis = def2-tzvp
ecp = {}
CPU time:         2.73
RKS
Density fitting turned on
Molecule built
Calculating SCF Energy...


******** <class 'pyscf.df.df_jk.density_fit.<locals>.DFHF'> ********
method = DFHF-RKS-RHF
initial guess = chkfile
damping factor = 0
level_shift factor = 0
DIIS = <class 'pyscf.scf.diis.CDIIS'>
diis_start_cycle = 1
diis_space = 8
SCF conv_tol = 1e-10
SCF conv_tol_grad = None
SCF max_cycles = 50
direct_scf = True
direct_scf_tol = 1e-13
chkfile to save SCF result = 72_Vitamin_D3_wb97x.chk
max_memory 80000 MB (current use 55 MB)
XC functionals = wb97x
small_rho_cutoff = 1e-07
radial grids: 
    Treutler-Ahlrichs [JCP 102, 346 (1995); DOI:10.1063/1.469408] (M4) radial grids
    
becke partition: Becke, JCP 88, 2547 (1988); DOI:10.1063/1.454033
pruning grids: <function nwchem_prune at 0x7f2e60248e18>
grids dens level: 3
symmetrized grids: False
atomic radii adjust function: <function treutler_atomic_radii_adjust at 0x7f2e60248d90>
Set gradient conv threshold to 1e-05
atom O rad-grids = 75, ang-grids = [ 50  50  50  50  50  50  50  50  50  50  50  50  50  50  50  50  50  50
  50  50  50  50  86  86  86  86  86  86  86  86  86 266 266 266 266 266
 266 266 302 302 302 302 302 302 302 302 302 302 302 302 302 302 302 302
 302 302 302 266 266 266 266 266 266 266 266 266 266 266 266 266 266 266
 266 266 266]
atom C rad-grids = 75, ang-grids = [ 50  50  50  50  50  50  50  50  50  50  50  50  50  50  50  50  50  50
  50  50  50  50  50  86  86  86  86  86  86  86  86  86  86 266 266 266
 266 266 266 266 302 302 302 302 302 302 302 302 302 302 302 302 302 302
 302 302 302 302 302 302 266 266 266 266 266 266 266 266 266 266 266 266
 266 266 266]
atom H rad-grids = 50, ang-grids = [ 50  50  50  50  50  50  50  50  50  50  50  50  50  50  86  86  86  86
 266 266 266 266 302 302 302 302 302 302 302 302 302 302 302 302 302 266
 266 266 266 266 266 266 266 266 266 266 266 266 266 266]
tot grids = 830672
Drop grids 171027
    CPU time for setting up grids    186.04 sec, wall time     11.57 sec
nelec by numeric integration = 213.99969478613951
    CPU time for vxc    248.05 sec, wall time     14.10 sec
******** <class 'pyscf.df.df.DF'> ********
auxbasis = None
max_memory = 80000
_cderi_to_save = /tmp/job.16219444.hpc/tmpe_lpp0gu
Default auxbasis def2-tzvp-jkfit is used for O def2-tzvp
Default auxbasis def2-tzvp-jkfit is used for C def2-tzvp
Default auxbasis def2-tzvp-jkfit is used for H def2-tzvp
num shells = 964, num cGTOs = 2894
size of aux basis 2894
int3c2e [1/1], AO [0:484], nrow = 641278
    CPU time for cholesky_eri    315.29 sec, wall time     51.96 sec
    CPU time for df vj and vk    921.89 sec, wall time     92.99 sec
Create RSH-DF object <pyscf.df.df.DF object at 0x7f2ea058a6d8> for omega=0.3
******** <class 'pyscf.df.df.DF'> ********
auxbasis = None
max_memory = 80000
_cderi_to_save = /tmp/job.16219444.hpc/tmpc8saxjvj
Default auxbasis def2-tzvp-jkfit is used for O def2-tzvp
Default auxbasis def2-tzvp-jkfit is used for C def2-tzvp
Default auxbasis def2-tzvp-jkfit is used for H def2-tzvp
num shells = 964, num cGTOs = 2894
size of aux basis 2334
int3c2e [1/1], AO [0:484], nrow = 641278
    CPU time for cholesky_eri    443.00 sec, wall time     32.77 sec
    CPU time for df vj and vk    960.52 sec, wall time     62.94 sec
E1 = -6827.075000593867  Ecoul = 3202.9064084220013  Exc = -171.4974543515085
init E= -1130.69259544518
cond(S) = 941736.5113095288
    CPU time for initialize scf   2329.59 sec, wall time    183.09 sec
  HOMO = -0.292634013906137  LUMO = 0.0370469194476904
  mo_energy =
[-1.91860992e+01 -1.03072552e+01 -1.02736691e+01 -1.02728600e+01
 -1.02679507e+01 -1.02678743e+01 -1.02643414e+01 -1.02618876e+01
 -1.02609422e+01 -1.02607680e+01 -1.02602474e+01 -1.02591467e+01
 -1.02586797e+01 -1.02567767e+01 -1.02559065e+01 -1.02545755e+01
 -1.02526297e+01 -1.02514077e+01 -1.02509709e+01 -1.02504472e+01
 -1.02495418e+01 -1.02494113e+01 -1.02488594e+01 -1.02482440e+01
 -1.02443389e+01 -1.02442851e+01 -1.02442106e+01 -1.02440385e+01
 -1.14189636e+00 -1.00104888e+00 -9.78424260e-01 -9.54422989e-01
 -9.40626728e-01 -9.19841450e-01 -9.14898235e-01 -8.92921264e-01
 -8.90026061e-01 -8.67977880e-01 -8.60194794e-01 -8.37300008e-01
 -8.17720993e-01 -8.06501766e-01 -8.01627636e-01 -7.96528608e-01
 -7.91871800e-01 -7.63703765e-01 -7.43717000e-01 -7.17942007e-01
 -7.15667631e-01 -7.04621848e-01 -6.99901394e-01 -6.79342912e-01
 -6.63930091e-01 -6.41902068e-01 -6.25881150e-01 -6.15214126e-01
 -6.07369023e-01 -5.97008366e-01 -5.93832808e-01 -5.85573451e-01
 -5.78458947e-01 -5.72394025e-01 -5.70493364e-01 -5.58989495e-01
 -5.55723294e-01 -5.54972772e-01 -5.51010834e-01 -5.44549980e-01
 -5.39043016e-01 -5.28946596e-01 -5.24715426e-01 -5.19679172e-01
 -5.18044741e-01 -5.12725691e-01 -5.05123327e-01 -5.03392907e-01
 -5.00082846e-01 -4.94528268e-01 -4.86877838e-01 -4.82838923e-01
 -4.79089228e-01 -4.76411552e-01 -4.71867154e-01 -4.64885243e-01
 -4.62302487e-01 -4.56345443e-01 -4.53730123e-01 -4.50528477e-01
 -4.47578757e-01 -4.45682073e-01 -4.37047546e-01 -4.31869949e-01
 -4.29277088e-01 -4.23190951e-01 -4.20105944e-01 -4.18618119e-01
 -4.15627698e-01 -4.15219102e-01 -4.05303541e-01 -4.04391300e-01
 -4.00079914e-01 -3.97359805e-01 -3.93023059e-01 -3.80536827e-01
 -3.72316436e-01 -3.54091865e-01 -2.92634014e-01  3.70469194e-02
  8.56238130e-02  9.37133773e-02  1.08281569e-01  1.10260836e-01
  1.16242526e-01  1.19584464e-01  1.25610409e-01  1.31487856e-01
  1.36861216e-01  1.39308775e-01  1.44710465e-01  1.49256305e-01
  1.52910463e-01  1.55857755e-01  1.58285374e-01  1.65077072e-01
  1.67273321e-01  1.69458422e-01  1.69815124e-01  1.76235351e-01
  1.78216429e-01  1.81888625e-01  1.83020009e-01  1.86036184e-01
  1.86870826e-01  1.91790402e-01  1.93344020e-01  1.97209819e-01
  1.97916374e-01  2.04456003e-01  2.09334047e-01  2.10685902e-01
  2.11272274e-01  2.15021408e-01  2.17947305e-01  2.18769708e-01
  2.22011262e-01  2.25757224e-01  2.31987689e-01  2.33728783e-01
  2.36128487e-01  2.39557362e-01  2.42151863e-01  2.43814083e-01
  2.45052397e-01  2.48933292e-01  2.52558810e-01  2.56282651e-01
  2.59121034e-01  2.63921910e-01  2.67746132e-01  2.68670753e-01
  2.72414821e-01  2.76386209e-01  2.80413442e-01  2.82083214e-01
  2.85805675e-01  2.88832509e-01  2.89642469e-01  2.95164179e-01
  2.97188580e-01  3.00839327e-01  3.03281893e-01  3.05844477e-01
  3.08034321e-01  3.09155702e-01  3.13714342e-01  3.15691438e-01
  3.20403894e-01  3.24229382e-01  3.29877717e-01  3.33249838e-01
  3.36102567e-01  3.37834503e-01  3.41188047e-01  3.46648932e-01
  3.47974689e-01  3.50337751e-01  3.57846702e-01  3.60522585e-01
  3.65136702e-01  3.68483335e-01  3.70768491e-01  3.76555299e-01
  3.79849163e-01  3.82363412e-01  3.84540562e-01  3.86440793e-01
  3.92576655e-01  3.96735778e-01  3.99078175e-01  4.00964004e-01
  4.05952378e-01  4.09614790e-01  4.14025447e-01  4.17181588e-01
  4.19686430e-01  4.23736628e-01  4.25851165e-01  4.33495355e-01
  4.35967087e-01  4.41270186e-01  4.45531860e-01  4.48995349e-01
  4.51825876e-01  4.55180176e-01  4.61778484e-01  4.66169181e-01
  4.68367930e-01  4.70169148e-01  4.74027045e-01  4.77578586e-01
  4.81816797e-01  4.84605996e-01  4.86708608e-01  4.89124066e-01
  4.92385706e-01  4.93695821e-01  4.97648486e-01  5.01230896e-01
  5.02418308e-01  5.05939533e-01  5.07749994e-01  5.10213974e-01
  5.11994445e-01  5.14040182e-01  5.16714590e-01  5.17509690e-01
  5.19482562e-01  5.22077827e-01  5.22843404e-01  5.25510943e-01
  5.29596546e-01  5.30780238e-01  5.33759732e-01  5.34469721e-01
  5.38910647e-01  5.39643903e-01  5.41536367e-01  5.42067241e-01
  5.44893271e-01  5.45863552e-01  5.49277848e-01  5.51875390e-01
  5.53452496e-01  5.57851391e-01  5.59990823e-01  5.61634250e-01
  5.63840942e-01  5.64721222e-01  5.67195259e-01  5.69875774e-01
  5.72186469e-01  5.73235753e-01  5.75976474e-01  5.77797289e-01
  5.80571120e-01  5.82207613e-01  5.87540870e-01  5.89327212e-01
  5.90011149e-01  5.91436698e-01  5.96260777e-01  5.97974566e-01
  5.99760176e-01  6.04056720e-01  6.06759203e-01  6.10171751e-01
  6.13607635e-01  6.14892795e-01  6.19697817e-01  6.19732350e-01
  6.22325908e-01  6.27956329e-01  6.30770636e-01  6.36479252e-01
  6.38031884e-01  6.43731803e-01  6.47274635e-01  6.52097611e-01
  6.56535341e-01  6.58417220e-01  6.68333546e-01  6.71107687e-01
  6.73343735e-01  6.74134743e-01  6.79526048e-01  6.82752442e-01
  6.88191942e-01  6.91030840e-01  6.93892115e-01  7.01642426e-01
  7.02974869e-01  7.08244407e-01  7.11959583e-01  7.19515964e-01
  7.25681763e-01  7.30526706e-01  7.35129791e-01  7.45206217e-01
  7.46588025e-01  7.51442508e-01  7.52926661e-01  7.60701887e-01
  7.66277527e-01  7.70211242e-01  7.80370518e-01  7.82744624e-01
  7.83921428e-01  7.89719605e-01  7.93247898e-01  7.98492843e-01
  8.08299523e-01  8.11154320e-01  8.13301834e-01  8.23424491e-01
  8.27206327e-01  8.31765723e-01  8.39663058e-01  8.43173033e-01
  8.48707887e-01  8.51860627e-01  8.59100757e-01  8.67106847e-01
  8.73960477e-01  8.80510530e-01  8.81952951e-01  8.87555054e-01
  8.94504900e-01  8.97138784e-01  9.07303927e-01  9.12314797e-01
  9.17086253e-01  9.21366608e-01  9.26830492e-01  9.30785858e-01
  9.38201476e-01  9.41804620e-01  9.44079103e-01  9.46407016e-01
  9.58066199e-01  9.63651677e-01  9.68260655e-01  9.71166282e-01
  9.73013487e-01  9.78001316e-01  9.84551369e-01  9.89007815e-01
  9.90712021e-01  9.95244287e-01  1.00043784e+00  1.00605222e+00
  1.00977648e+00  1.01409937e+00  1.01968542e+00  1.02466795e+00
  1.03091719e+00  1.04118747e+00  1.04993990e+00  1.05922307e+00
  1.06047824e+00  1.06515445e+00  1.06837338e+00  1.07446442e+00
  1.07585526e+00  1.08179228e+00  1.08661939e+00  1.08851233e+00
  1.09530093e+00  1.09950724e+00  1.10550929e+00  1.10637287e+00
  1.11080217e+00  1.11906755e+00  1.12920808e+00  1.13296280e+00
  1.13620717e+00  1.14469092e+00  1.14481852e+00  1.15270435e+00
  1.15622738e+00  1.16331938e+00  1.17165162e+00  1.17462788e+00
  1.18064953e+00  1.18640563e+00  1.19091873e+00  1.19597089e+00
  1.20101593e+00  1.20374730e+00  1.20879511e+00  1.21287140e+00
  1.22286186e+00  1.22645349e+00  1.23298018e+00  1.23492621e+00
  1.24189025e+00  1.24668459e+00  1.25162637e+00  1.25389716e+00
  1.25846456e+00  1.26513709e+00  1.26793438e+00  1.27570726e+00
  1.27756809e+00  1.28466910e+00  1.29108052e+00  1.29466621e+00
  1.29792633e+00  1.30278275e+00  1.30957998e+00  1.31340689e+00
  1.32187513e+00  1.32473318e+00  1.32909096e+00  1.33037312e+00
  1.33501780e+00  1.34009578e+00  1.34621956e+00  1.34851264e+00
  1.35365296e+00  1.35733689e+00  1.36067499e+00  1.36592339e+00
  1.37528091e+00  1.37717290e+00  1.38249180e+00  1.38948038e+00
  1.39254942e+00  1.39808133e+00  1.40635885e+00  1.40857067e+00
  1.41617097e+00  1.42076402e+00  1.42674332e+00  1.43144374e+00
  1.43517415e+00  1.44063119e+00  1.44609127e+00  1.45220623e+00
  1.45825385e+00  1.45997714e+00  1.46412720e+00  1.47114055e+00
  1.48654620e+00  1.49492097e+00  1.50164878e+00  1.50309311e+00
  1.50772914e+00  1.51265073e+00  1.51963170e+00  1.52556742e+00
  1.52776534e+00  1.53317469e+00  1.54941194e+00  1.55446753e+00
  1.56881763e+00  1.57270186e+00  1.57341543e+00  1.58392983e+00
  1.59388567e+00  1.59849727e+00  1.60953748e+00  1.61014766e+00
  1.62283644e+00  1.63299179e+00  1.64294449e+00  1.64436006e+00
  1.64705505e+00  1.65386721e+00  1.65635689e+00  1.65839096e+00
  1.66461516e+00  1.67047581e+00  1.67422297e+00  1.67895997e+00
  1.68089409e+00  1.68958221e+00  1.69399632e+00  1.69683127e+00
  1.70141512e+00  1.70356002e+00  1.70550044e+00  1.70817342e+00
  1.71415489e+00  1.71826960e+00  1.72312722e+00  1.72785444e+00
  1.72836871e+00  1.73261073e+00  1.73602293e+00  1.73979067e+00
  1.74059680e+00  1.74609339e+00  1.75072183e+00  1.75725827e+00
  1.76156495e+00  1.76260768e+00  1.76582424e+00  1.77373247e+00
  1.77567681e+00  1.77851669e+00  1.77904690e+00  1.78632544e+00
  1.79028110e+00  1.79528342e+00  1.80166106e+00  1.80577477e+00
  1.81292461e+00  1.81577901e+00  1.81752875e+00  1.82465930e+00
  1.82974233e+00  1.84156046e+00  1.84758096e+00  1.84922847e+00
  1.85529769e+00  1.85920229e+00  1.86130565e+00  1.86960030e+00
  1.87478397e+00  1.88004311e+00  1.88294530e+00  1.89043997e+00
  1.89387701e+00  1.90247066e+00  1.90991288e+00  1.91471066e+00
  1.92267103e+00  1.92711008e+00  1.93232022e+00  1.93532995e+00
  1.94071146e+00  1.94198735e+00  1.94661781e+00  1.95621325e+00
  1.96157831e+00  1.97036175e+00  1.97173229e+00  1.98276032e+00
  1.98981685e+00  1.99400732e+00  1.99461118e+00  2.00415120e+00
  2.00722616e+00  2.00803355e+00  2.01520125e+00  2.01864497e+00
  2.02468177e+00  2.02766380e+00  2.04056594e+00  2.04549788e+00
  2.05256099e+00  2.05950252e+00  2.06399605e+00  2.06591832e+00
  2.06772466e+00  2.07542412e+00  2.08711937e+00  2.09040882e+00
  2.09271873e+00  2.09771735e+00  2.10435420e+00  2.11259770e+00
  2.12056445e+00  2.12726995e+00  2.12873558e+00  2.13386535e+00
  2.13910406e+00  2.14873843e+00  2.15151142e+00  2.15692668e+00
  2.16117620e+00  2.16757800e+00  2.17423003e+00  2.17716345e+00
  2.18593372e+00  2.19245202e+00  2.19509628e+00  2.19946204e+00
  2.20632083e+00  2.21164288e+00  2.21603557e+00  2.22497659e+00
  2.23158267e+00  2.23924510e+00  2.24582758e+00  2.24985101e+00
  2.25295136e+00  2.25818626e+00  2.26055059e+00  2.26603803e+00
  2.28171516e+00  2.29046787e+00  2.29496943e+00  2.29963469e+00
  2.30231619e+00  2.30746185e+00  2.31254819e+00  2.32073165e+00
  2.32202153e+00  2.32637538e+00  2.33678172e+00  2.34524280e+00
  2.35100135e+00  2.35748489e+00  2.36344466e+00  2.37060673e+00
  2.38215321e+00  2.38584690e+00  2.39342442e+00  2.39626945e+00
  2.40119112e+00  2.40504600e+00  2.40694819e+00  2.41642031e+00
  2.42648525e+00  2.43104917e+00  2.43926896e+00  2.44410417e+00
  2.44762147e+00  2.45441206e+00  2.45611024e+00  2.46710334e+00
  2.47008424e+00  2.47797341e+00  2.48309721e+00  2.48580364e+00
  2.48871366e+00  2.49622637e+00  2.50305063e+00  2.51443005e+00
  2.51686715e+00  2.51971617e+00  2.52508193e+00  2.52613249e+00
  2.53155328e+00  2.53778761e+00  2.54349562e+00  2.54846931e+00
  2.55239206e+00  2.55845176e+00  2.56405697e+00  2.56968917e+00
  2.57171893e+00  2.57868320e+00  2.58679225e+00  2.58785296e+00
  2.59386350e+00  2.60180045e+00  2.60709158e+00  2.61170442e+00
  2.61635797e+00  2.61956972e+00  2.62272575e+00  2.62605301e+00
  2.63040931e+00  2.63277283e+00  2.64053850e+00  2.64663753e+00
  2.64991355e+00  2.65672047e+00  2.65870687e+00  2.66154747e+00
  2.66505864e+00  2.66594068e+00  2.66842097e+00  2.67148585e+00
  2.67841467e+00  2.68011980e+00  2.68321769e+00  2.68896460e+00
  2.69009099e+00  2.69456547e+00  2.70330558e+00  2.70721552e+00
  2.71009829e+00  2.71520958e+00  2.71803720e+00  2.72122149e+00
  2.72698194e+00  2.73538083e+00  2.73591519e+00  2.73834226e+00
  2.74285102e+00  2.74513596e+00  2.75033834e+00  2.75477551e+00
  2.75840287e+00  2.75920770e+00  2.76423646e+00  2.76799816e+00
  2.77223723e+00  2.77535210e+00  2.77698667e+00  2.78764069e+00
  2.79062624e+00  2.79255196e+00  2.79692347e+00  2.80075372e+00
  2.80891905e+00  2.81028994e+00  2.81199496e+00  2.81887701e+00
  2.82053178e+00  2.83009769e+00  2.83154806e+00  2.83953472e+00
  2.84263879e+00  2.84630605e+00  2.84683475e+00  2.85128672e+00
  2.85356957e+00  2.85718712e+00  2.86044064e+00  2.87248206e+00
  2.87482663e+00  2.88182884e+00  2.88511239e+00  2.88877382e+00
  2.89081094e+00  2.89184610e+00  2.89889710e+00  2.90144843e+00
  2.90909796e+00  2.91107030e+00  2.91540383e+00  2.92345530e+00
  2.92529890e+00  2.93458831e+00  2.94381293e+00  2.94724637e+00
  2.95014120e+00  2.95354184e+00  2.96660215e+00  2.97009395e+00
  2.97463344e+00  2.98188229e+00  2.98646579e+00  2.99147333e+00
  2.99467326e+00  3.00224317e+00  3.00831175e+00  3.01216019e+00
  3.01621528e+00  3.02470702e+00  3.02824474e+00  3.03480389e+00
  3.03939417e+00  3.04168649e+00  3.04481339e+00  3.05526020e+00
  3.06271025e+00  3.07232981e+00  3.07998153e+00  3.08310580e+00
  3.08450634e+00  3.08770817e+00  3.09383327e+00  3.10722648e+00
  3.11487348e+00  3.11578023e+00  3.12303866e+00  3.12888546e+00
  3.13279977e+00  3.14365807e+00  3.14581456e+00  3.15055216e+00
  3.15214439e+00  3.16044649e+00  3.16778233e+00  3.17228165e+00
  3.18451426e+00  3.19311501e+00  3.19457622e+00  3.20030181e+00
  3.20727684e+00  3.21197166e+00  3.21610283e+00  3.21894461e+00
  3.22548859e+00  3.23202878e+00  3.23529050e+00  3.24104808e+00
  3.24579291e+00  3.24849066e+00  3.25796286e+00  3.26360943e+00
  3.26416790e+00  3.26748071e+00  3.27012829e+00  3.27507109e+00
  3.27678816e+00  3.28756845e+00  3.29347783e+00  3.29711685e+00
  3.30469728e+00  3.30656158e+00  3.30782530e+00  3.31688348e+00
  3.31791189e+00  3.32490366e+00  3.32672822e+00  3.33240605e+00
  3.33942590e+00  3.34304109e+00  3.34570147e+00  3.35522180e+00
  3.35922238e+00  3.36008117e+00  3.36898007e+00  3.37305679e+00
  3.37631283e+00  3.37921805e+00  3.38314212e+00  3.38607283e+00
  3.38761508e+00  3.39072686e+00  3.39356580e+00  3.39868726e+00
  3.40369271e+00  3.40648196e+00  3.40944280e+00  3.41699101e+00
  3.41962552e+00  3.42368982e+00  3.42960916e+00  3.43370698e+00
  3.43488855e+00  3.44716433e+00  3.44878654e+00  3.45443128e+00
  3.45579352e+00  3.46263745e+00  3.46730224e+00  3.46838420e+00
  3.47630098e+00  3.47853400e+00  3.48495677e+00  3.48742932e+00
  3.48846404e+00  3.49284373e+00  3.50020020e+00  3.50367855e+00
  3.51016552e+00  3.51208993e+00  3.51463876e+00  3.51569405e+00
  3.52296858e+00  3.53187807e+00  3.53536720e+00  3.53851582e+00
  3.54230158e+00  3.54505624e+00  3.54694082e+00  3.55429482e+00
  3.55740715e+00  3.56374722e+00  3.56748364e+00  3.57004898e+00
  3.57211407e+00  3.58119321e+00  3.58563566e+00  3.59017418e+00
  3.59437569e+00  3.59598426e+00  3.60853935e+00  3.61121914e+00
  3.61146090e+00  3.61769272e+00  3.62042401e+00  3.62884489e+00
  3.63285458e+00  3.63646035e+00  3.64097382e+00  3.64403682e+00
  3.65154636e+00  3.65767886e+00  3.66067414e+00  3.66372555e+00
  3.66843694e+00  3.67028344e+00  3.67794280e+00  3.68019125e+00
  3.69091159e+00  3.69602571e+00  3.70192906e+00  3.70949385e+00
  3.71186279e+00  3.71287319e+00  3.71896156e+00  3.72029480e+00
  3.72922339e+00  3.73912701e+00  3.74292007e+00  3.74672618e+00
  3.75306886e+00  3.75628048e+00  3.76195455e+00  3.76637568e+00
  3.76896547e+00  3.77845805e+00  3.78380488e+00  3.79089826e+00
  3.79309938e+00  3.80038947e+00  3.80517183e+00  3.80671891e+00
  3.81976710e+00  3.82482910e+00  3.82982841e+00  3.83355432e+00
  3.84830036e+00  3.85109697e+00  3.85612209e+00  3.86548804e+00
  3.86628761e+00  3.87345979e+00  3.88118602e+00  3.88586268e+00
  3.89648594e+00  3.89755614e+00  3.90030656e+00  3.90927620e+00
  3.91935786e+00  3.92266281e+00  3.93102405e+00  3.94541458e+00
  3.95886431e+00  3.96163410e+00  3.97661669e+00  3.98121783e+00
  3.99525038e+00  3.99784056e+00  4.00991671e+00  4.01323750e+00
  4.02714378e+00  4.03418399e+00  4.04021985e+00  4.04440388e+00
  4.05778024e+00  4.06277779e+00  4.06802851e+00  4.07156448e+00
  4.07293684e+00  4.07366613e+00  4.09252374e+00  4.09690230e+00
  4.10065021e+00  4.11017323e+00  4.11798176e+00  4.12112016e+00
  4.12291638e+00  4.12541467e+00  4.13414703e+00  4.14308897e+00
  4.14890848e+00  4.15229589e+00  4.15565171e+00  4.16440431e+00
  4.16895328e+00  4.16996140e+00  4.18164881e+00  4.18677243e+00
  4.19216962e+00  4.19751838e+00  4.20166550e+00  4.20715448e+00
  4.21769377e+00  4.22813520e+00  4.22969847e+00  4.23439570e+00
  4.24839827e+00  4.25307476e+00  4.26049692e+00  4.26982307e+00
  4.27312496e+00  4.28074919e+00  4.29165513e+00  4.30368170e+00
  4.30552303e+00  4.31553646e+00  4.31706398e+00  4.32403161e+00
  4.32628233e+00  4.33847577e+00  4.35155452e+00  4.36102580e+00
  4.36403795e+00  4.37514884e+00  4.37658681e+00  4.39776872e+00
  4.40911105e+00  4.41948097e+00  4.42896485e+00  4.43556556e+00
  4.43735915e+00  4.45747795e+00  4.46399142e+00  4.47485366e+00
  4.47932344e+00  4.48327306e+00  4.48562754e+00  4.49472384e+00
  4.50286177e+00  4.50691576e+00  4.51914395e+00  4.53494884e+00
  4.54033384e+00  4.54346376e+00  4.55150397e+00  4.56886418e+00
  4.57441835e+00  4.58002602e+00  4.59152146e+00  4.59249710e+00
  4.60057767e+00  4.60833446e+00  4.61486378e+00  4.62035591e+00
  4.62761100e+00  4.62960607e+00  4.63584016e+00  4.64262346e+00
  4.65104158e+00  4.66600850e+00  4.67246052e+00  4.68872985e+00
  4.69260298e+00  4.69882739e+00  4.70579269e+00  4.71610050e+00
  4.73811748e+00  4.74409550e+00  4.75396035e+00  4.76706471e+00
  4.77360440e+00  4.78884464e+00  4.80452484e+00  4.81083435e+00
  4.82148144e+00  4.83241098e+00  4.84596654e+00  4.85608178e+00
  4.87605302e+00  4.88838289e+00  4.89352165e+00  4.90848843e+00
  4.91349063e+00  4.92383371e+00  4.93481999e+00  4.94677432e+00
  4.96112839e+00  4.97088456e+00  4.97354852e+00  4.99556117e+00
  5.00979687e+00  5.01436154e+00  5.03627873e+00  5.04437658e+00
  5.06578576e+00  5.07454494e+00  5.10175576e+00  5.11304502e+00
  5.12329318e+00  5.12992236e+00  5.14376824e+00  5.17414552e+00
  5.19099801e+00  5.22066531e+00  5.24189472e+00  5.24988024e+00
  5.28568667e+00  5.30363009e+00  5.32048227e+00  5.34999737e+00
  5.38009093e+00  5.39226632e+00  5.40834817e+00  5.44183998e+00
  5.47404011e+00  5.49701885e+00  5.51646129e+00  5.60884067e+00
  5.62113210e+00  5.68288282e+00  5.71513479e+00  5.84154744e+00
  5.90894476e+00  6.04980846e+00  6.36318678e+00  6.61937722e+00
  6.87992569e+00  6.95654661e+00  7.10784635e+00  7.27823075e+00
  2.23566763e+01  2.23797339e+01  2.24060083e+01  2.24675493e+01
  2.25135680e+01  2.25223214e+01  2.25283481e+01  2.25643127e+01
  2.25766724e+01  2.25819755e+01  2.25891031e+01  2.25943387e+01
  2.25997384e+01  2.26212660e+01  2.26266230e+01  2.26499263e+01
  2.26605902e+01  2.26655454e+01  2.26727860e+01  2.27586736e+01
  2.27875056e+01  2.28347894e+01  2.29121904e+01  2.29823426e+01
  2.30564847e+01  2.31568824e+01  2.32702165e+01  4.41109819e+01]
nelec by numeric integration = 213.99969478629558
    CPU time for vxc    208.63 sec, wall time     12.20 sec
    CPU time for df vj and vk    617.68 sec, wall time     43.23 sec
    CPU time for df vj and vk    486.93 sec, wall time     26.22 sec
E1 = -6827.07499043991  Ecoul = 3202.906396985482  Exc = -171.49745306895244
cycle= 1 E= -1130.69259544519  delta_E= -5.91e-12  |g|= 3.35e-06  |ddm|= 6.95e-06
    CPU time for cycle= 1   1322.47 sec, wall time     82.98 sec
  HOMO = -0.292634002380697  LUMO = 0.0370468623074246
  mo_energy =
[-1.91861003e+01 -1.03072549e+01 -1.02736695e+01 -1.02728619e+01
 -1.02679481e+01 -1.02678749e+01 -1.02643414e+01 -1.02618880e+01
 -1.02609423e+01 -1.02607667e+01 -1.02602477e+01 -1.02591464e+01
 -1.02586791e+01 -1.02567761e+01 -1.02559070e+01 -1.02545755e+01
 -1.02526294e+01 -1.02514091e+01 -1.02509713e+01 -1.02504478e+01
 -1.02495421e+01 -1.02494110e+01 -1.02488595e+01 -1.02482447e+01
 -1.02443389e+01 -1.02442852e+01 -1.02442106e+01 -1.02440385e+01
 -1.14189674e+00 -1.00104871e+00 -9.78424752e-01 -9.54422800e-01
 -9.40626657e-01 -9.19841460e-01 -9.14898101e-01 -8.92921294e-01
 -8.90026427e-01 -8.67977902e-01 -8.60194734e-01 -8.37300043e-01
 -8.17720838e-01 -8.06501782e-01 -8.01627749e-01 -7.96528613e-01
 -7.91871876e-01 -7.63703801e-01 -7.43716973e-01 -7.17941838e-01
 -7.15667863e-01 -7.04621977e-01 -6.99901390e-01 -6.79342893e-01
 -6.63930134e-01 -6.41902085e-01 -6.25881269e-01 -6.15214100e-01
 -6.07369311e-01 -5.97008255e-01 -5.93832664e-01 -5.85573388e-01
 -5.78459028e-01 -5.72394060e-01 -5.70493415e-01 -5.58989573e-01
 -5.55723355e-01 -5.54972905e-01 -5.51010819e-01 -5.44550221e-01
 -5.39042988e-01 -5.28946496e-01 -5.24715480e-01 -5.19679031e-01
 -5.18044989e-01 -5.12725645e-01 -5.05123362e-01 -5.03392905e-01
 -5.00082907e-01 -4.94528284e-01 -4.86877837e-01 -4.82838819e-01
 -4.79089158e-01 -4.76411537e-01 -4.71867142e-01 -4.64885279e-01
 -4.62302599e-01 -4.56345529e-01 -4.53729967e-01 -4.50528527e-01
 -4.47578767e-01 -4.45682032e-01 -4.37047521e-01 -4.31869958e-01
 -4.29277223e-01 -4.23191135e-01 -4.20106092e-01 -4.18618140e-01
 -4.15627683e-01 -4.15219157e-01 -4.05303531e-01 -4.04391256e-01
 -4.00079842e-01 -3.97359806e-01 -3.93023078e-01 -3.80536773e-01
 -3.72316711e-01 -3.54092267e-01 -2.92634002e-01  3.70468623e-02
  8.56235758e-02  9.37134324e-02  1.08281600e-01  1.10260810e-01
  1.16242481e-01  1.19584478e-01  1.25610469e-01  1.31487817e-01
  1.36861213e-01  1.39308783e-01  1.44710524e-01  1.49256300e-01
  1.52910414e-01  1.55857772e-01  1.58285368e-01  1.65077070e-01
  1.67273322e-01  1.69458440e-01  1.69815139e-01  1.76235342e-01
  1.78216386e-01  1.81888601e-01  1.83019979e-01  1.86036117e-01
  1.86870841e-01  1.91790432e-01  1.93344049e-01  1.97209819e-01
  1.97916400e-01  2.04456007e-01  2.09334035e-01  2.10685833e-01
  2.11272263e-01  2.15021415e-01  2.17947309e-01  2.18769626e-01
  2.22011285e-01  2.25757219e-01  2.31987722e-01  2.33728764e-01
  2.36128376e-01  2.39557399e-01  2.42151869e-01  2.43814087e-01
  2.45052404e-01  2.48933301e-01  2.52558805e-01  2.56282641e-01
  2.59121091e-01  2.63921932e-01  2.67746105e-01  2.68670754e-01
  2.72414829e-01  2.76386230e-01  2.80413498e-01  2.82083241e-01
  2.85805591e-01  2.88832544e-01  2.89642527e-01  2.95164166e-01
  2.97188623e-01  3.00839319e-01  3.03281799e-01  3.05844429e-01
  3.08034372e-01  3.09155758e-01  3.13714373e-01  3.15691432e-01
  3.20403909e-01  3.24229396e-01  3.29877667e-01  3.33249824e-01
  3.36102584e-01  3.37834516e-01  3.41188087e-01  3.46648974e-01
  3.47974696e-01  3.50337640e-01  3.57846696e-01  3.60522509e-01
  3.65136631e-01  3.68483366e-01  3.70768443e-01  3.76555311e-01
  3.79849207e-01  3.82363422e-01  3.84540605e-01  3.86440775e-01
  3.92576627e-01  3.96735685e-01  3.99078199e-01  4.00964020e-01
  4.05952389e-01  4.09614664e-01  4.14025416e-01  4.17181541e-01
  4.19686499e-01  4.23736605e-01  4.25851025e-01  4.33495247e-01
  4.35967014e-01  4.41270140e-01  4.45531899e-01  4.48995367e-01
  4.51825854e-01  4.55180171e-01  4.61778494e-01  4.66169136e-01
  4.68367978e-01  4.70169115e-01  4.74027012e-01  4.77578594e-01
  4.81816797e-01  4.84606012e-01  4.86708531e-01  4.89124019e-01
  4.92385722e-01  4.93695775e-01  4.97648509e-01  5.01230902e-01
  5.02418332e-01  5.05939550e-01  5.07749982e-01  5.10213991e-01
  5.11994478e-01  5.14040176e-01  5.16714524e-01  5.17509724e-01
  5.19482577e-01  5.22077825e-01  5.22843398e-01  5.25510950e-01
  5.29596555e-01  5.30780230e-01  5.33759690e-01  5.34469748e-01
  5.38910712e-01  5.39643886e-01  5.41536373e-01  5.42067248e-01
  5.44893355e-01  5.45863553e-01  5.49277846e-01  5.51875429e-01
  5.53452472e-01  5.57851360e-01  5.59990813e-01  5.61634300e-01
  5.63840927e-01  5.64721224e-01  5.67195204e-01  5.69875798e-01
  5.72186440e-01  5.73235794e-01  5.75976482e-01  5.77797272e-01
  5.80571031e-01  5.82207619e-01  5.87540774e-01  5.89327247e-01
  5.90011200e-01  5.91436780e-01  5.96260816e-01  5.97974582e-01
  5.99760240e-01  6.04056731e-01  6.06759274e-01  6.10171797e-01
  6.13607583e-01  6.14892724e-01  6.19697800e-01  6.19732336e-01
  6.22325921e-01  6.27956338e-01  6.30770582e-01  6.36479302e-01
  6.38031870e-01  6.43731786e-01  6.47274611e-01  6.52097564e-01
  6.56535338e-01  6.58417202e-01  6.68333354e-01  6.71107579e-01
  6.73343681e-01  6.74134736e-01  6.79526070e-01  6.82752362e-01
  6.88191897e-01  6.91030862e-01  6.93892019e-01  7.01642380e-01
  7.02974748e-01  7.08244410e-01  7.11959554e-01  7.19516017e-01
  7.25681763e-01  7.30526804e-01  7.35129686e-01  7.45206206e-01
  7.46587991e-01  7.51442485e-01  7.52926587e-01  7.60701755e-01
  7.66277568e-01  7.70211249e-01  7.80370467e-01  7.82744612e-01
  7.83921333e-01  7.89719587e-01  7.93247882e-01  7.98492839e-01
  8.08299519e-01  8.11154356e-01  8.13301843e-01  8.23424557e-01
  8.27206386e-01  8.31765672e-01  8.39663111e-01  8.43173066e-01
  8.48707906e-01  8.51860517e-01  8.59100760e-01  8.67106947e-01
  8.73960412e-01  8.80510546e-01  8.81952933e-01  8.87555100e-01
  8.94504963e-01  8.97138769e-01  9.07303852e-01  9.12314716e-01
  9.17086306e-01  9.21366688e-01  9.26830511e-01  9.30785907e-01
  9.38201477e-01  9.41804591e-01  9.44079142e-01  9.46407057e-01
  9.58066154e-01  9.63651665e-01  9.68260559e-01  9.71166374e-01
  9.73013426e-01  9.78001363e-01  9.84551372e-01  9.89007732e-01
  9.90712026e-01  9.95244292e-01  1.00043784e+00  1.00605223e+00
  1.00977657e+00  1.01409934e+00  1.01968534e+00  1.02466781e+00
  1.03091723e+00  1.04118742e+00  1.04993988e+00  1.05922307e+00
  1.06047823e+00  1.06515446e+00  1.06837337e+00  1.07446441e+00
  1.07585527e+00  1.08179224e+00  1.08661933e+00  1.08851228e+00
  1.09530091e+00  1.09950715e+00  1.10550935e+00  1.10637282e+00
  1.11080212e+00  1.11906756e+00  1.12920810e+00  1.13296284e+00
  1.13620703e+00  1.14469085e+00  1.14481854e+00  1.15270434e+00
  1.15622734e+00  1.16331933e+00  1.17165172e+00  1.17462794e+00
  1.18064944e+00  1.18640562e+00  1.19091872e+00  1.19597090e+00
  1.20101595e+00  1.20374731e+00  1.20879513e+00  1.21287141e+00
  1.22286181e+00  1.22645345e+00  1.23298008e+00  1.23492617e+00
  1.24189029e+00  1.24668465e+00  1.25162639e+00  1.25389717e+00
  1.25846452e+00  1.26513714e+00  1.26793429e+00  1.27570726e+00
  1.27756807e+00  1.28466915e+00  1.29108054e+00  1.29466619e+00
  1.29792632e+00  1.30278267e+00  1.30957992e+00  1.31340680e+00
  1.32187520e+00  1.32473319e+00  1.32909103e+00  1.33037317e+00
  1.33501779e+00  1.34009572e+00  1.34621954e+00  1.34851258e+00
  1.35365291e+00  1.35733688e+00  1.36067492e+00  1.36592341e+00
  1.37528090e+00  1.37717290e+00  1.38249186e+00  1.38948035e+00
  1.39254947e+00  1.39808127e+00  1.40635880e+00  1.40857065e+00
  1.41617096e+00  1.42076401e+00  1.42674329e+00  1.43144365e+00
  1.43517411e+00  1.44063119e+00  1.44609119e+00  1.45220619e+00
  1.45825382e+00  1.45997715e+00  1.46412723e+00  1.47114056e+00
  1.48654627e+00  1.49492095e+00  1.50164878e+00  1.50309308e+00
  1.50772905e+00  1.51265063e+00  1.51963170e+00  1.52556744e+00
  1.52776533e+00  1.53317473e+00  1.54941190e+00  1.55446752e+00
  1.56881767e+00  1.57270185e+00  1.57341531e+00  1.58392984e+00
  1.59388574e+00  1.59849730e+00  1.60953750e+00  1.61014766e+00
  1.62283631e+00  1.63299168e+00  1.64294451e+00  1.64435998e+00
  1.64705508e+00  1.65386724e+00  1.65635687e+00  1.65839097e+00
  1.66461515e+00  1.67047584e+00  1.67422298e+00  1.67896014e+00
  1.68089411e+00  1.68958225e+00  1.69399627e+00  1.69683132e+00
  1.70141510e+00  1.70356001e+00  1.70550041e+00  1.70817346e+00
  1.71415483e+00  1.71826962e+00  1.72312717e+00  1.72785427e+00
  1.72836858e+00  1.73261069e+00  1.73602285e+00  1.73979066e+00
  1.74059666e+00  1.74609337e+00  1.75072178e+00  1.75725821e+00
  1.76156493e+00  1.76260766e+00  1.76582434e+00  1.77373254e+00
  1.77567671e+00  1.77851674e+00  1.77904683e+00  1.78632521e+00
  1.79028116e+00  1.79528341e+00  1.80166102e+00  1.80577484e+00
  1.81292457e+00  1.81577902e+00  1.81752886e+00  1.82465932e+00
  1.82974234e+00  1.84156052e+00  1.84758098e+00  1.84922841e+00
  1.85529769e+00  1.85920226e+00  1.86130572e+00  1.86960024e+00
  1.87478399e+00  1.88004304e+00  1.88294530e+00  1.89043997e+00
  1.89387696e+00  1.90247057e+00  1.90991278e+00  1.91471063e+00
  1.92267099e+00  1.92711004e+00  1.93232014e+00  1.93533002e+00
  1.94071140e+00  1.94198734e+00  1.94661763e+00  1.95621315e+00
  1.96157826e+00  1.97036170e+00  1.97173223e+00  1.98276030e+00
  1.98981690e+00  1.99400734e+00  1.99461128e+00  2.00415109e+00
  2.00722609e+00  2.00803345e+00  2.01520126e+00  2.01864501e+00
  2.02468176e+00  2.02766380e+00  2.04056595e+00  2.04549793e+00
  2.05256100e+00  2.05950247e+00  2.06399588e+00  2.06591827e+00
  2.06772465e+00  2.07542421e+00  2.08711933e+00  2.09040877e+00
  2.09271878e+00  2.09771722e+00  2.10435416e+00  2.11259783e+00
  2.12056438e+00  2.12726992e+00  2.12873552e+00  2.13386535e+00
  2.13910405e+00  2.14873834e+00  2.15151155e+00  2.15692664e+00
  2.16117616e+00  2.16757800e+00  2.17422988e+00  2.17716352e+00
  2.18593377e+00  2.19245207e+00  2.19509613e+00  2.19946200e+00
  2.20632074e+00  2.21164297e+00  2.21603557e+00  2.22497660e+00
  2.23158274e+00  2.23924482e+00  2.24582764e+00  2.24985106e+00
  2.25295132e+00  2.25818627e+00  2.26055057e+00  2.26603814e+00
  2.28171521e+00  2.29046769e+00  2.29496925e+00  2.29963473e+00
  2.30231618e+00  2.30746192e+00  2.31254825e+00  2.32073169e+00
  2.32202156e+00  2.32637541e+00  2.33678177e+00  2.34524283e+00
  2.35100120e+00  2.35748486e+00  2.36344461e+00  2.37060682e+00
  2.38215325e+00  2.38584694e+00  2.39342455e+00  2.39626933e+00
  2.40119117e+00  2.40504606e+00  2.40694811e+00  2.41642031e+00
  2.42648505e+00  2.43104921e+00  2.43926904e+00  2.44410412e+00
  2.44762143e+00  2.45441207e+00  2.45611026e+00  2.46710311e+00
  2.47008428e+00  2.47797339e+00  2.48309721e+00  2.48580350e+00
  2.48871362e+00  2.49622636e+00  2.50305055e+00  2.51443006e+00
  2.51686715e+00  2.51971612e+00  2.52508186e+00  2.52613237e+00
  2.53155327e+00  2.53778760e+00  2.54349552e+00  2.54846940e+00
  2.55239212e+00  2.55845179e+00  2.56405688e+00  2.56968921e+00
  2.57171893e+00  2.57868322e+00  2.58679227e+00  2.58785291e+00
  2.59386343e+00  2.60180042e+00  2.60709148e+00  2.61170428e+00
  2.61635799e+00  2.61956972e+00  2.62272580e+00  2.62605295e+00
  2.63040933e+00  2.63277283e+00  2.64053837e+00  2.64663758e+00
  2.64991352e+00  2.65672048e+00  2.65870685e+00  2.66154751e+00
  2.66505855e+00  2.66594070e+00  2.66842105e+00  2.67148583e+00
  2.67841466e+00  2.68011974e+00  2.68321765e+00  2.68896458e+00
  2.69009095e+00  2.69456553e+00  2.70330550e+00  2.70721554e+00
  2.71009834e+00  2.71520975e+00  2.71803722e+00  2.72122145e+00
  2.72698193e+00  2.73538085e+00  2.73591518e+00  2.73834226e+00
  2.74285089e+00  2.74513599e+00  2.75033831e+00  2.75477548e+00
  2.75840286e+00  2.75920764e+00  2.76423643e+00  2.76799819e+00
  2.77223717e+00  2.77535211e+00  2.77698685e+00  2.78764079e+00
  2.79062622e+00  2.79255181e+00  2.79692331e+00  2.80075371e+00
  2.80891904e+00  2.81028994e+00  2.81199504e+00  2.81887691e+00
  2.82053178e+00  2.83009768e+00  2.83154798e+00  2.83953471e+00
  2.84263869e+00  2.84630611e+00  2.84683481e+00  2.85128663e+00
  2.85356955e+00  2.85718699e+00  2.86044057e+00  2.87248207e+00
  2.87482662e+00  2.88182881e+00  2.88511227e+00  2.88877388e+00
  2.89081096e+00  2.89184608e+00  2.89889704e+00  2.90144849e+00
  2.90909800e+00  2.91107030e+00  2.91540365e+00  2.92345528e+00
  2.92529892e+00  2.93458843e+00  2.94381278e+00  2.94724640e+00
  2.95014124e+00  2.95354186e+00  2.96660232e+00  2.97009382e+00
  2.97463341e+00  2.98188239e+00  2.98646579e+00  2.99147337e+00
  2.99467316e+00  3.00224295e+00  3.00831174e+00  3.01216025e+00
  3.01621527e+00  3.02470708e+00  3.02824472e+00  3.03480373e+00
  3.03939430e+00  3.04168656e+00  3.04481330e+00  3.05526023e+00
  3.06271027e+00  3.07232979e+00  3.07998154e+00  3.08310563e+00
  3.08450627e+00  3.08770813e+00  3.09383317e+00  3.10722652e+00
  3.11487345e+00  3.11578036e+00  3.12303849e+00  3.12888542e+00
  3.13279980e+00  3.14365794e+00  3.14581432e+00  3.15055226e+00
  3.15214431e+00  3.16044647e+00  3.16778233e+00  3.17228153e+00
  3.18451419e+00  3.19311497e+00  3.19457623e+00  3.20030179e+00
  3.20727678e+00  3.21197158e+00  3.21610284e+00  3.21894439e+00
  3.22548859e+00  3.23202878e+00  3.23529045e+00  3.24104807e+00
  3.24579295e+00  3.24849045e+00  3.25796291e+00  3.26360934e+00
  3.26416777e+00  3.26748066e+00  3.27012831e+00  3.27507115e+00
  3.27678812e+00  3.28756846e+00  3.29347778e+00  3.29711687e+00
  3.30469721e+00  3.30656159e+00  3.30782537e+00  3.31688344e+00
  3.31791186e+00  3.32490363e+00  3.32672813e+00  3.33240605e+00
  3.33942587e+00  3.34304109e+00  3.34570126e+00  3.35522178e+00
  3.35922235e+00  3.36008105e+00  3.36898007e+00  3.37305677e+00
  3.37631288e+00  3.37921808e+00  3.38314212e+00  3.38607272e+00
  3.38761502e+00  3.39072683e+00  3.39356577e+00  3.39868728e+00
  3.40369257e+00  3.40648197e+00  3.40944281e+00  3.41699085e+00
  3.41962555e+00  3.42368983e+00  3.42960900e+00  3.43370697e+00
  3.43488850e+00  3.44716430e+00  3.44878646e+00  3.45443145e+00
  3.45579344e+00  3.46263749e+00  3.46730228e+00  3.46838422e+00
  3.47630099e+00  3.47853399e+00  3.48495674e+00  3.48742935e+00
  3.48846394e+00  3.49284370e+00  3.50020012e+00  3.50367859e+00
  3.51016560e+00  3.51208994e+00  3.51463860e+00  3.51569420e+00
  3.52296862e+00  3.53187792e+00  3.53536719e+00  3.53851581e+00
  3.54230156e+00  3.54505619e+00  3.54694068e+00  3.55429487e+00
  3.55740717e+00  3.56374718e+00  3.56748364e+00  3.57004897e+00
  3.57211405e+00  3.58119317e+00  3.58563570e+00  3.59017416e+00
  3.59437564e+00  3.59598409e+00  3.60853934e+00  3.61121915e+00
  3.61146086e+00  3.61769271e+00  3.62042401e+00  3.62884485e+00
  3.63285461e+00  3.63646035e+00  3.64097388e+00  3.64403693e+00
  3.65154635e+00  3.65767869e+00  3.66067417e+00  3.66372552e+00
  3.66843702e+00  3.67028339e+00  3.67794277e+00  3.68019124e+00
  3.69091165e+00  3.69602564e+00  3.70192909e+00  3.70949384e+00
  3.71186278e+00  3.71287326e+00  3.71896147e+00  3.72029475e+00
  3.72922339e+00  3.73912704e+00  3.74292000e+00  3.74672613e+00
  3.75306896e+00  3.75628039e+00  3.76195457e+00  3.76637564e+00
  3.76896548e+00  3.77845809e+00  3.78380486e+00  3.79089831e+00
  3.79309934e+00  3.80038935e+00  3.80517179e+00  3.80671896e+00
  3.81976710e+00  3.82482900e+00  3.82982842e+00  3.83355422e+00
  3.84830032e+00  3.85109697e+00  3.85612209e+00  3.86548804e+00
  3.86628757e+00  3.87345978e+00  3.88118593e+00  3.88586257e+00
  3.89648595e+00  3.89755613e+00  3.90030655e+00  3.90927618e+00
  3.91935770e+00  3.92266299e+00  3.93102411e+00  3.94541461e+00
  3.95886417e+00  3.96163414e+00  3.97661668e+00  3.98121793e+00
  3.99525054e+00  3.99784061e+00  4.00991677e+00  4.01323742e+00
  4.02714379e+00  4.03418409e+00  4.04021986e+00  4.04440395e+00
  4.05778027e+00  4.06277782e+00  4.06802853e+00  4.07156435e+00
  4.07293689e+00  4.07366609e+00  4.09252378e+00  4.09690218e+00
  4.10065027e+00  4.11017318e+00  4.11798177e+00  4.12112016e+00
  4.12291638e+00  4.12541459e+00  4.13414692e+00  4.14308899e+00
  4.14890843e+00  4.15229593e+00  4.15565161e+00  4.16440432e+00
  4.16895315e+00  4.16996138e+00  4.18164884e+00  4.18677250e+00
  4.19216964e+00  4.19751833e+00  4.20166551e+00  4.20715429e+00
  4.21769378e+00  4.22813514e+00  4.22969836e+00  4.23439572e+00
  4.24839826e+00  4.25307469e+00  4.26049689e+00  4.26982316e+00
  4.27312484e+00  4.28074916e+00  4.29165507e+00  4.30368167e+00
  4.30552295e+00  4.31553646e+00  4.31706395e+00  4.32403149e+00
  4.32628225e+00  4.33847579e+00  4.35155439e+00  4.36102588e+00
  4.36403794e+00  4.37514886e+00  4.37658661e+00  4.39776874e+00
  4.40911108e+00  4.41948092e+00  4.42896488e+00  4.43556558e+00
  4.43735903e+00  4.45747793e+00  4.46399147e+00  4.47485377e+00
  4.47932346e+00  4.48327308e+00  4.48562752e+00  4.49472378e+00
  4.50286183e+00  4.50691577e+00  4.51914397e+00  4.53494885e+00
  4.54033388e+00  4.54346375e+00  4.55150369e+00  4.56886422e+00
  4.57441829e+00  4.58002592e+00  4.59152145e+00  4.59249713e+00
  4.60057772e+00  4.60833445e+00  4.61486377e+00  4.62035589e+00
  4.62761101e+00  4.62960618e+00  4.63584016e+00  4.64262331e+00
  4.65104174e+00  4.66600854e+00  4.67246057e+00  4.68872990e+00
  4.69260311e+00  4.69882729e+00  4.70579265e+00  4.71610040e+00
  4.73811751e+00  4.74409542e+00  4.75396023e+00  4.76706467e+00
  4.77360420e+00  4.78884465e+00  4.80452494e+00  4.81083445e+00
  4.82148150e+00  4.83241089e+00  4.84596673e+00  4.85608170e+00
  4.87605288e+00  4.88838281e+00  4.89352149e+00  4.90848836e+00
  4.91349046e+00  4.92383367e+00  4.93481994e+00  4.94677436e+00
  4.96112824e+00  4.97088449e+00  4.97354840e+00  4.99556113e+00
  5.00979690e+00  5.01436152e+00  5.03627848e+00  5.04437673e+00
  5.06578572e+00  5.07454494e+00  5.10175589e+00  5.11304491e+00
  5.12329317e+00  5.12992233e+00  5.14376832e+00  5.17414547e+00
  5.19099805e+00  5.22066529e+00  5.24189461e+00  5.24988024e+00
  5.28568664e+00  5.30362998e+00  5.32048199e+00  5.34999741e+00
  5.38009106e+00  5.39226619e+00  5.40834790e+00  5.44183993e+00
  5.47404017e+00  5.49701851e+00  5.51646126e+00  5.60884027e+00
  5.62113197e+00  5.68288275e+00  5.71513520e+00  5.84154708e+00
  5.90894440e+00  6.04980807e+00  6.36318631e+00  6.61937666e+00
  6.87992515e+00  6.95654608e+00  7.10784584e+00  7.27823026e+00
  2.23566753e+01  2.23797338e+01  2.24060083e+01  2.24675493e+01
  2.25135680e+01  2.25223213e+01  2.25283479e+01  2.25643127e+01
  2.25766723e+01  2.25819757e+01  2.25891035e+01  2.25943388e+01
  2.25997383e+01  2.26212664e+01  2.26266228e+01  2.26499262e+01
  2.26605901e+01  2.26655452e+01  2.26727858e+01  2.27586737e+01
  2.27875056e+01  2.28347896e+01  2.29121900e+01  2.29823422e+01
  2.30564851e+01  2.31568822e+01  2.32702169e+01  4.41109809e+01]
nelec by numeric integration = 213.99969478616606
    CPU time for vxc    220.58 sec, wall time     13.24 sec
    CPU time for df vj and vk    605.16 sec, wall time     39.62 sec
    CPU time for df vj and vk    494.89 sec, wall time     26.31 sec
E1 = -6827.074998151476  Ecoul = 3202.906405733641  Exc = -171.49745410554445
Extra cycle  E= -1130.69259544519  delta_E= 4.55e-13  |g|= 3.5e-06  |ddm|= 7.71e-06
    CPU time for scf_cycle   4981.39 sec, wall time    346.56 sec
    CPU time for SCF   4981.39 sec, wall time    346.56 sec
converged SCF energy = -1130.69259544519
SCF Done after 346.62 seconds
after SCF memory used: 26.38 GB
Converting <class 'pyscf.df.df_jk.density_fit.<locals>.DFHF'> to RHF
Converting <class 'pyscf.df.df_jk.density_fit.<locals>.DFHF'> to RHF
hdiag shape (109675,)
n_occ =  107
n_vir =  1025
max_vir =  285
A_size =  109675
A_reduced_size = 30495
a_x = 0.56
beta = 8.0
alpha = 4.58
Q-Gamma tensors building time = 1.20
after Q matrix memory used: 26.67 GB
TDDFT
|-------- In-house Developed TDDFT Starts ---------|
Residual conv = 1e-05

Number of excited states = 1
Initial guess:   sTDDFT
Preconditioner:  sTDDFT
A matrix size =  109675
setting initial guess
sTDDFT Convergence tol = 1.00e-03
sTDDFT diagonalization Converged
after  8 iterations; 2.8004 seconds
final subspace 16
max_norm =  8.56e-04
MVcost     2.3045s 82.29%
GScost     0.1904s 6.80%
subgencost 0.1742s 6.22%
subcost    0.0060s 0.21%
sTDDFT excitation energy:
[4.63545857 5.88241466]
new_m = 2
initial guess done

iteration 0
beginning of step 0 memory used: 26.78 GB
    CPU time for df vj and vk   1223.94 sec, wall time     78.41 sec
    CPU time for df vj and vk    959.50 sec, wall time     53.47 sec
subspace size: 2
Maximum residual norm:  1.91e-01
unconverged states [0]
sTDDFT_preconditioner conv 0.01
sTDDFT preconditioning Done
after 7 steps; 0.9037 s
final subspace 7
max_norm =  9.45e-03
initial_cost 0.0145s  1.60%
MVcost     0.7336s  81.18%
GScost     0.0408s  4.51%
subgencost 0.0736s  8.14%
subcost    0.0043s  0.47%
m & new_m 2 3

iteration 1
beginning of step 1 memory used: 26.83 GB
    CPU time for df vj and vk    608.75 sec, wall time     40.62 sec
    CPU time for df vj and vk    491.43 sec, wall time     26.01 sec
subspace size: 3
Maximum residual norm:  4.83e-02
unconverged states [0]
sTDDFT_preconditioner conv 0.01
sTDDFT preconditioning Done
after 6 steps; 0.7391 s
final subspace 6
max_norm =  5.66e-03
initial_cost 0.0102s  1.39%
MVcost     0.6132s  82.96%
GScost     0.0307s  4.15%
subgencost 0.0530s  7.18%
subcost    0.0035s  0.48%
m & new_m 3 4

iteration 2
beginning of step 2 memory used: 26.83 GB
    CPU time for df vj and vk    603.68 sec, wall time     39.46 sec
    CPU time for df vj and vk    483.62 sec, wall time     26.97 sec
subspace size: 4
Maximum residual norm:  2.47e-02
unconverged states [0]
sTDDFT_preconditioner conv 0.01
sTDDFT preconditioning Done
after 6 steps; 0.7180 s
final subspace 6
max_norm =  4.48e-03
initial_cost 0.0096s  1.34%
MVcost     0.5913s  82.34%
GScost     0.0299s  4.17%
subgencost 0.0517s  7.20%
subcost    0.0038s  0.53%
m & new_m 4 5

iteration 3
beginning of step 3 memory used: 26.83 GB
    CPU time for df vj and vk    611.42 sec, wall time     40.25 sec
    CPU time for df vj and vk    487.65 sec, wall time     26.28 sec
subspace size: 5
Maximum residual norm:  8.47e-03
unconverged states [0]
sTDDFT_preconditioner conv 0.01
sTDDFT preconditioning Done
after 5 steps; 0.5941 s
final subspace 5
max_norm =  3.71e-03
initial_cost 0.0087s  1.47%
MVcost     0.5007s  84.27%
GScost     0.0215s  3.63%
subgencost 0.0381s  6.41%
subcost    0.0029s  0.49%
m & new_m 5 6

iteration 4
beginning of step 4 memory used: 26.83 GB
    CPU time for df vj and vk    604.50 sec, wall time     38.77 sec
    CPU time for df vj and vk    487.58 sec, wall time     26.22 sec
subspace size: 6
Maximum residual norm:  2.91e-03
unconverged states [0]
sTDDFT_preconditioner conv 0.01
sTDDFT preconditioning Done
after 5 steps; 0.5942 s
final subspace 5
max_norm =  5.97e-03
initial_cost 0.0080s  1.35%
MVcost     0.5008s  84.29%
GScost     0.0217s  3.65%
subgencost 0.0384s  6.46%
subcost    0.0029s  0.49%
m & new_m 6 7

iteration 5
beginning of step 5 memory used: 26.83 GB
    CPU time for df vj and vk    605.88 sec, wall time     39.43 sec
    CPU time for df vj and vk    484.70 sec, wall time     26.53 sec
subspace size: 7
Maximum residual norm:  1.00e-03
unconverged states [0]
sTDDFT_preconditioner conv 0.01
sTDDFT preconditioning Done
after 5 steps; 0.5944 s
final subspace 5
max_norm =  3.75e-03
initial_cost 0.0081s  1.36%
MVcost     0.5014s  84.36%
GScost     0.0215s  3.62%
subgencost 0.0382s  6.43%
subcost    0.0029s  0.49%
m & new_m 7 8

iteration 6
beginning of step 6 memory used: 26.83 GB
    CPU time for df vj and vk    613.00 sec, wall time     39.40 sec
    CPU time for df vj and vk    483.38 sec, wall time     26.74 sec
subspace size: 8
Maximum residual norm:  3.07e-04
unconverged states [0]
sTDDFT_preconditioner conv 0.01
sTDDFT preconditioning Done
after 5 steps; 0.5926 s
final subspace 5
max_norm =  5.94e-03
initial_cost 0.0075s  1.26%
MVcost     0.4998s  84.35%
GScost     0.0217s  3.67%
subgencost 0.0384s  6.48%
subcost    0.0029s  0.49%
m & new_m 8 9

iteration 7
beginning of step 7 memory used: 26.83 GB
    CPU time for df vj and vk    606.61 sec, wall time     39.46 sec
    CPU time for df vj and vk    487.04 sec, wall time     26.78 sec
subspace size: 9
Maximum residual norm:  9.11e-05
unconverged states [0]
sTDDFT_preconditioner conv 0.01
sTDDFT preconditioning Done
after 5 steps; 0.5979 s
final subspace 5
max_norm =  6.26e-03
initial_cost 0.0099s  1.66%
MVcost     0.5016s  83.89%
GScost     0.0219s  3.67%
subgencost 0.0391s  6.54%
subcost    0.0030s  0.49%
m & new_m 9 10

iteration 8
beginning of step 8 memory used: 26.83 GB
    CPU time for df vj and vk    609.79 sec, wall time     40.00 sec
    CPU time for df vj and vk    484.85 sec, wall time     26.37 sec
subspace size: 10
Maximum residual norm:  3.08e-05
unconverged states [0]
sTDDFT_preconditioner conv 0.01
sTDDFT preconditioning Done
after 5 steps; 0.5988 s
final subspace 5
max_norm =  6.41e-03
initial_cost 0.0116s  1.95%
MVcost     0.5014s  83.73%
GScost     0.0217s  3.63%
subgencost 0.0388s  6.48%
subcost    0.0029s  0.49%
m & new_m 10 11

iteration 9
beginning of step 9 memory used: 26.83 GB
    CPU time for df vj and vk    600.97 sec, wall time     39.06 sec
    CPU time for df vj and vk    488.14 sec, wall time     25.98 sec
subspace size: 11
Maximum residual norm:  1.05e-05
unconverged states [0]
sTDDFT_preconditioner conv 0.01
sTDDFT preconditioning Done
after 5 steps; 0.6004 s
final subspace 5
max_norm =  8.14e-03
initial_cost 0.0094s  1.56%
MVcost     0.5066s  84.39%
GScost     0.0214s  3.56%
subgencost 0.0380s  6.33%
subcost    0.0029s  0.48%
m & new_m 11 12

iteration 10
beginning of step 10 memory used: 26.83 GB
    CPU time for df vj and vk    608.72 sec, wall time     39.71 sec
    CPU time for df vj and vk    481.96 sec, wall time     26.36 sec
subspace size: 12
Maximum residual norm:  4.10e-06
TDDFT precedure Done

============= TDDFT Calculation Done ==============
after 11 iterations 969.74 s
Final subspace  12
preconditioning cost 6.5708 0.01 %
max_norm =  4.10e-06
Total TDDFT memory used: 26.83 GB
Excited State energies (eV) =
 [4.72718915]

Number of excited states = 1
Initial guess:   Adiag
Preconditioner:  Adiag
A matrix size =  109675
new_m = 2
initial guess done

iteration 0
beginning of step 0 memory used: 26.78 GB
    CPU time for df vj and vk   1216.84 sec, wall time     77.58 sec
    CPU time for df vj and vk    968.02 sec, wall time     53.20 sec
subspace size: 2
Maximum residual norm:  1.92e-01
unconverged states [0]
m & new_m 2 3

iteration 1
beginning of step 1 memory used: 26.83 GB
    CPU time for df vj and vk    614.89 sec, wall time     40.96 sec
    CPU time for df vj and vk    484.15 sec, wall time     25.68 sec
subspace size: 3
Maximum residual norm:  4.85e-02
unconverged states [0]
m & new_m 3 4

iteration 2
beginning of step 2 memory used: 26.83 GB
    CPU time for df vj and vk    601.19 sec, wall time     43.29 sec
    CPU time for df vj and vk    490.41 sec, wall time     26.25 sec
subspace size: 4
Maximum residual norm:  2.41e-02
unconverged states [0]
m & new_m 4 5

iteration 3
beginning of step 3 memory used: 26.83 GB
    CPU time for df vj and vk    607.53 sec, wall time     41.53 sec
    CPU time for df vj and vk    487.81 sec, wall time     26.29 sec
subspace size: 5
Maximum residual norm:  1.01e-02
unconverged states [0]
m & new_m 5 6

iteration 4
beginning of step 4 memory used: 26.83 GB
    CPU time for df vj and vk    605.97 sec, wall time     39.70 sec
    CPU time for df vj and vk    482.69 sec, wall time     26.60 sec
subspace size: 6
Maximum residual norm:  4.64e-03
unconverged states [0]
m & new_m 6 7

iteration 5
beginning of step 5 memory used: 26.83 GB
    CPU time for df vj and vk    607.88 sec, wall time     42.37 sec
    CPU time for df vj and vk    492.45 sec, wall time     27.03 sec
subspace size: 7
Maximum residual norm:  2.36e-03
unconverged states [0]
m & new_m 7 8

iteration 6
beginning of step 6 memory used: 26.83 GB
    CPU time for df vj and vk    611.38 sec, wall time     40.14 sec
    CPU time for df vj and vk    483.73 sec, wall time     26.30 sec
subspace size: 8
Maximum residual norm:  1.08e-03
unconverged states [0]
m & new_m 8 9

iteration 7
beginning of step 7 memory used: 26.83 GB
    CPU time for df vj and vk    610.59 sec, wall time     43.00 sec
    CPU time for df vj and vk    483.95 sec, wall time     26.45 sec
subspace size: 9
Maximum residual norm:  6.23e-04
unconverged states [0]
m & new_m 9 10

iteration 8
beginning of step 8 memory used: 26.83 GB
    CPU time for df vj and vk    619.18 sec, wall time     42.65 sec
    CPU time for df vj and vk    481.92 sec, wall time     26.60 sec
subspace size: 10
Maximum residual norm:  3.06e-04
unconverged states [0]
m & new_m 10 11

iteration 9
beginning of step 9 memory used: 26.83 GB
    CPU time for df vj and vk    606.21 sec, wall time     40.59 sec
    CPU time for df vj and vk    482.58 sec, wall time     26.62 sec
subspace size: 11
Maximum residual norm:  1.52e-04
unconverged states [0]
m & new_m 11 12

iteration 10
beginning of step 10 memory used: 26.83 GB
    CPU time for df vj and vk    605.35 sec, wall time     41.43 sec
    CPU time for df vj and vk    490.24 sec, wall time     26.43 sec
subspace size: 12
Maximum residual norm:  8.11e-05
unconverged states [0]
m & new_m 12 13

iteration 11
beginning of step 11 memory used: 26.83 GB
    CPU time for df vj and vk    612.52 sec, wall time     42.70 sec
    CPU time for df vj and vk    487.66 sec, wall time     26.19 sec
subspace size: 13
Maximum residual norm:  3.80e-05
unconverged states [0]
m & new_m 13 14

iteration 12
beginning of step 12 memory used: 26.83 GB
    CPU time for df vj and vk    608.36 sec, wall time     41.32 sec
    CPU time for df vj and vk    484.33 sec, wall time     26.71 sec
subspace size: 14
Maximum residual norm:  1.48e-05
unconverged states [0]
m & new_m 14 15

iteration 13
beginning of step 13 memory used: 26.83 GB
    CPU time for df vj and vk    599.82 sec, wall time     41.75 sec
    CPU time for df vj and vk    487.74 sec, wall time     26.56 sec
subspace size: 15
Maximum residual norm:  6.35e-06
TDDFT precedure Done

============= TDDFT Calculation Done ==============
after 14 iterations 1225.46 s
Final subspace  15
preconditioning cost 0.0490 0.00 %
max_norm =  6.35e-06
Total TDDFT memory used: 26.83 GB
Excited State energies (eV) =
 [4.72718915]
xyzfile = 72_Vitamin_D3.xyz
checkfile = True
method = RKS
functional = wb97x
basis_set = def2-tzvp
density_fit = True
grid_level = 3
nstates = 1
pytd = False
TDA = False
TDDFT = True
dynpol = False
dynpol_omega = []
stapol = False
sTDA = False
sTDDFT = False
Truncate_test = False
truncate_virtual = 40.0
ip_options = [0, 1]
conv_tolerance = 1e-05
initial_TOL = 0.001
precond_TOL = 0.01
extrainitial = 8
max = 30
eigensolver_tol = 1e-05
memory = 80000
verbose = 5
beta = []
alpha = []
|-------- In-house Developed TDDFT Ends ----------|
