curpath /scratch/pbsjobs/job.15971888.hpc
lib.num_threads() =  16
at beginning memory used: 52.53125 MB
mol.max_memory 50000


System: uname_result(system='Linux', node='compt178', release='3.10.0-1127.el7.x86_64', version='#1 SMP Tue Feb 18 16:39:12 EST 2020', machine='x86_64', processor='x86_64')  Threads 16
Python 3.7.0 (default, Aug 23 2018, 14:24:33) 
[GCC 6.3.0]
numpy 1.18.1  scipy 1.4.1
Date: Wed Jul  7 14:46:40 2021
PySCF version 1.7.4
PySCF path  /home/zzz6/.local/lib/python3.7/site-packages/pyscf

[CONFIG] conf_file None
[INPUT] verbose = 5
[INPUT] max_memory = 50000 
[INPUT] num. atoms = 37
[INPUT] num. electrons = 172
[INPUT] charge = 0
[INPUT] spin (= nelec alpha-beta = 2S) = 0
[INPUT] symmetry False subgroup None
[INPUT] Mole.unit = angstrom
[INPUT]  1 O      0.666740590510  -0.791215698749   2.172872659707 AA    1.259957112195  -1.495180976092   4.106134230401 Bohr
[INPUT]  2 C      1.322040583382  -1.749471885859   1.803729290307 AA    2.498294628152  -3.306022726900   3.408554361536 Bohr
[INPUT]  3 O      1.813471129608  -2.667226846278   2.680020481428 AA    3.426963769764  -5.040328251553   5.064504718124 Bohr
[INPUT]  4 C      1.679097867456  -2.060833813900   0.389157760329 AA    3.173035105833  -3.894411496514   0.735401586271 Bohr
[INPUT]  5 C      2.451265776756  -3.199358973792   0.081588199935 AA    4.632220976589  -6.045912234637   0.154179352873 Bohr
[INPUT]  6 C      2.807169466744  -3.484858118230  -1.239822885053 AA    5.304781477388  -6.585427426423  -2.342925695718 Bohr
[INPUT]  7 C      2.395828932868  -2.627019372227  -2.269777180389 AA    4.527460524430  -4.964347137436  -4.289257234723 Bohr
[INPUT]  8 C      1.628757485618  -1.492523527497  -1.974241765276 AA    3.077905571154  -2.820460701439  -3.730776240050 Bohr
[INPUT]  9 C      1.258629999217  -1.191845834292  -0.650366123654 AA    2.378465990682  -2.252262209516  -1.229013854401 Bohr
[INPUT] 10 C      0.422112772895   0.020970265372  -0.409385536184 AA    0.797677534452   0.039628058312  -0.773626542746 Bohr
[INPUT] 11 C     -1.006953610338  -0.121698966704  -0.276075075338 AA   -1.902866543682  -0.229977716712  -0.521706282208 Bohr
[INPUT] 12 C     -1.689708288380  -1.363615310352  -0.310941548487 AA   -3.193085895446  -2.576859475829  -0.587594367388 Bohr
[INPUT] 13 C     -3.067715646075  -1.441643482248  -0.160194738985 AA   -5.797142399125  -2.724311350713  -0.302724183279 Bohr
[INPUT] 14 C     -3.817218270273  -0.256822830310   0.032814465577 AA   -7.213497088501  -0.485324811821   0.062010352864 Bohr
[INPUT] 15 O     -5.161746423755  -0.389871734496   0.176829760070 AA   -9.754287065351  -0.736750801908   0.334159817205 Bohr
[INPUT] 16 C     -3.176663080910   0.991081248979   0.066717260966 AA   -6.003023212938   1.872872127762   0.126077351006 Bohr
[INPUT] 17 C     -1.786572512967   1.048411842688  -0.087062865401 AA   -3.376132751183   1.981211248431  -0.164524971227 Bohr
[INPUT] 18 O     -1.219516690603   2.282891893842  -0.049453052309 AA   -2.304552549576   4.314040451350  -0.093452724887 Bohr
[INPUT] 19 C      0.142770733308   2.453946636741  -0.198456908590 AA    0.269797584555   4.637287067738  -0.375029204764 Bohr
[INPUT] 20 C      0.632508552333   3.730450189827  -0.160332649074 AA    1.195267935354   7.049529180105  -0.302984795576 Bohr
[INPUT] 21 C      2.065063779068   3.993345863016  -0.302255204940 AA    3.902404972199   7.546330001764  -0.571179557060 Bohr
[INPUT] 22 O      2.546524187329   5.137841052294  -0.276573276743 AA    4.812233283633   9.709112460384  -0.522647746417 Bohr
[INPUT] 23 C      2.919775017453   2.797399582709  -0.477743652489 AA    5.517575128333   5.286319072292  -0.902804660954 Bohr
[INPUT] 24 C      2.409510508284   1.534030048844  -0.515002651161 AA    4.553314954918   2.898896659168  -0.973213964119 Bohr
[INPUT] 25 C      0.989237696180   1.287980950399  -0.386627277036 AA    1.869388317877   2.433931249911  -0.730619665885 Bohr
[INPUT] 26 H      1.527194163164  -2.361985637399   3.566021422602 AA    2.885978707415  -4.463505964840   6.738803843050 Bohr
[INPUT] 27 H      2.770480321527  -3.852259473000   0.897455221482 AA    5.235449041183  -7.279715364731   1.695944577662 Bohr
[INPUT] 28 H      3.407243770280  -4.371960667584  -1.465573535589 AA    6.438757565460  -8.261808289104  -2.769532597673 Bohr
[INPUT] 29 H      2.672481515034  -2.839135805082  -3.307734142464 AA    5.050258136376  -5.365189102051  -6.250711622130 Bohr
[INPUT] 30 H      1.305569214640  -0.821223006569  -2.775920806539 AA    2.467168252334  -1.551886569608  -5.245730067841 Bohr
[INPUT] 31 H     -1.107083404541  -2.277771481244  -0.459385186204 AA   -2.092084431633  -4.304364273896  -0.868112187608 Bohr
[INPUT] 32 H     -3.594289122312  -2.398994852366  -0.185755845299 AA   -6.792222053673  -4.533443245214  -0.351027673652 Bohr
[INPUT] 33 H     -5.557845874926   0.491260843791   0.304986242971 AA  -10.502806546155   0.928348450487   0.576340470975 Bohr
[INPUT] 34 H     -3.732931303246   1.922544817620   0.211889719213 AA   -7.054217804951   3.633083167504   0.400413537924 Bohr
[INPUT] 35 H     -0.039776660295   4.580112597621  -0.018106740305 AA   -0.075166994108   8.655158429174  -0.034216780185 Bohr
[INPUT] 36 H      3.994093357522   2.984917056487  -0.574002072313 AA    7.547742561662   5.640675741303  -1.084706711604 Bohr
[INPUT] 37 H      3.065753467443   0.666652427952  -0.641491764765 AA    5.793434418904   1.259790509105  -1.212243746569 Bohr
[INPUT] ---------------- BASIS SET ---------------- 
[INPUT] l, kappa, [nprim/nctr], expnt,             c_1 c_2 ...
[INPUT] O
[INPUT] 0    0    [6    /1   ]  27032.382631      0.00021726302465
                                4052.3871392      0.0016838662199
                                922.3272271       0.0087395616265
                                261.24070989      0.035239968808
                                85.354641351      0.11153519115
                                31.035035245      0.25588953961
[INPUT] 0    0    [2    /1   ]  12.260860728      0.39768730901
                                4.9987076005      0.2462784943
[INPUT] 0    0    [1    /1   ]  1.1703108158         1
[INPUT] 0    0    [1    /1   ]  0.46474740994        1
[INPUT] 0    0    [1    /1   ]  0.18504536357        1
[INPUT] 1    0    [4    /1   ]  63.274954801      0.0060685103418
                                14.627049379      0.041912575824
                                4.4501223456      0.16153841088
                                1.5275799647      0.35706951311
[INPUT] 1    0    [1    /1   ]  0.52935117943        1
[INPUT] 1    0    [1    /1   ]  0.1747842127         1
[INPUT] 2    0    [1    /1   ]  2.314                1
[INPUT] 2    0    [1    /1   ]  0.645                1
[INPUT] 3    0    [1    /1   ]  1.428                1
[INPUT] H
[INPUT] 0    0    [3    /1   ]  34.061341         0.0060251978
                                5.1235746         0.045021094
                                1.1646626         0.20189726
[INPUT] 0    0    [1    /1   ]  0.32723041           1
[INPUT] 0    0    [1    /1   ]  0.10307241           1
[INPUT] 1    0    [1    /1   ]  0.8                  1
[INPUT] C
[INPUT] 0    0    [6    /1   ]  13575.349682      0.00022245814352
                                2035.233368       0.0017232738252
                                463.22562359      0.0089255715314
                                131.20019598      0.035727984502
                                42.853015891      0.11076259931
                                15.584185766      0.24295627626
[INPUT] 0    0    [2    /1   ]  6.2067138508      0.41440263448
                                2.5764896527      0.23744968655
[INPUT] 0    0    [1    /1   ]  0.57696339419        1
[INPUT] 0    0    [1    /1   ]  0.22972831358        1
[INPUT] 0    0    [1    /1   ]  0.095164440028       1
[INPUT] 1    0    [4    /1   ]  34.697232244      0.0053333657805
                                7.9582622826      0.035864109092
                                2.3780826883      0.14215873329
                                0.81433208183     0.34270471845
[INPUT] 1    0    [1    /1   ]  0.28887547253        1
[INPUT] 1    0    [1    /1   ]  0.10056823671        1
[INPUT] 2    0    [1    /1   ]  1.097                1
[INPUT] 2    0    [1    /1   ]  0.318                1
[INPUT] 3    0    [1    /1   ]  0.761                1

nuclear repulsion = 2066.44084815727
number of shells = 323
number of NR pGTOs = 1246
number of NR cGTOs = 847
basis = def2-tzvp
ecp = {}
CPU time:         3.82
RKS
Density fitting turned on
Molecule built
Calculating SCF Energy...


******** <class 'pyscf.df.df_jk.density_fit.<locals>.DFHF'> ********
method = DFHF-RKS-RHF
initial guess = chkfile
damping factor = 0
level_shift factor = 0
DIIS = <class 'pyscf.scf.diis.CDIIS'>
diis_start_cycle = 1
diis_space = 8
SCF conv_tol = 1e-10
SCF conv_tol_grad = None
SCF max_cycles = 50
direct_scf = True
direct_scf_tol = 1e-13
chkfile to save SCF result = 37_Fluorescein_wb97x.chk
max_memory 50000 MB (current use 56 MB)
XC functionals = wb97x
small_rho_cutoff = 1e-07
radial grids: 
    Treutler-Ahlrichs [JCP 102, 346 (1995); DOI:10.1063/1.469408] (M4) radial grids
    
becke partition: Becke, JCP 88, 2547 (1988); DOI:10.1063/1.454033
pruning grids: <function nwchem_prune at 0x7f429a19d048>
grids dens level: 3
symmetrized grids: False
atomic radii adjust function: <function treutler_atomic_radii_adjust at 0x7f429a18af28>
Set gradient conv threshold to 1e-05
atom O rad-grids = 75, ang-grids = [ 50  50  50  50  50  50  50  50  50  50  50  50  50  50  50  50  50  50
  50  50  50  50  86  86  86  86  86  86  86  86  86 266 266 266 266 266
 266 266 302 302 302 302 302 302 302 302 302 302 302 302 302 302 302 302
 302 302 302 266 266 266 266 266 266 266 266 266 266 266 266 266 266 266
 266 266 266]
atom C rad-grids = 75, ang-grids = [ 50  50  50  50  50  50  50  50  50  50  50  50  50  50  50  50  50  50
  50  50  50  50  50  86  86  86  86  86  86  86  86  86  86 266 266 266
 266 266 266 266 302 302 302 302 302 302 302 302 302 302 302 302 302 302
 302 302 302 302 302 302 266 266 266 266 266 266 266 266 266 266 266 266
 266 266 266]
atom H rad-grids = 50, ang-grids = [ 50  50  50  50  50  50  50  50  50  50  50  50  50  50  86  86  86  86
 266 266 266 266 302 302 302 302 302 302 302 302 302 302 302 302 302 266
 266 266 266 266 266 266 266 266 266 266 266 266 266 266]
tot grids = 469638
Drop grids 82091
    CPU time for setting up grids     91.23 sec, wall time      6.39 sec
nelec by numeric integration = 172.0001413599816
    CPU time for vxc    151.99 sec, wall time     21.89 sec
******** <class 'pyscf.df.df.DF'> ********
auxbasis = None
max_memory = 50000
_cderi_to_save = /tmp/job.15971888.hpc/tmp7hmkmxyr
Default auxbasis def2-tzvp-jkfit is used for O def2-tzvp
Default auxbasis def2-tzvp-jkfit is used for H def2-tzvp
Default auxbasis def2-tzvp-jkfit is used for C def2-tzvp
num shells = 697, num cGTOs = 2101
size of aux basis 2101
int3c2e [1/1], AO [0:323], nrow = 359128
    CPU time for cholesky_eri    188.14 sec, wall time     29.83 sec
    CPU time for df vj and vk    570.63 sec, wall time     59.48 sec
Create RSH-DF object <pyscf.df.df.DF object at 0x7f42ab62c668> for omega=0.3
******** <class 'pyscf.df.df.DF'> ********
auxbasis = None
max_memory = 50000
_cderi_to_save = /tmp/job.15971888.hpc/tmpe69xggv5
Default auxbasis def2-tzvp-jkfit is used for O def2-tzvp
Default auxbasis def2-tzvp-jkfit is used for H def2-tzvp
Default auxbasis def2-tzvp-jkfit is used for C def2-tzvp
num shells = 697, num cGTOs = 2101
size of aux basis 1611
int3c2e [1/1], AO [0:323], nrow = 359128
    CPU time for cholesky_eri    237.76 sec, wall time     20.40 sec
    CPU time for df vj and vk    521.30 sec, wall time     40.02 sec
E1 = -5665.488443495541  Ecoul = 2609.168552405898  Exc = -155.72144010644922
init E= -1145.60048303882
cond(S) = 1765310.6743597768
    CPU time for initialize scf   1346.75 sec, wall time    129.73 sec
  HOMO = -0.2846711500251  LUMO = -0.0262145223031943
  mo_energy =
[-1.92743583e+01 -1.92635379e+01 -1.92525195e+01 -1.92037627e+01
 -1.91430883e+01 -1.04182446e+01 -1.03600452e+01 -1.03567533e+01
 -1.03502763e+01 -1.03246880e+01 -1.03246809e+01 -1.03178271e+01
 -1.03121807e+01 -1.03016991e+01 -1.03014655e+01 -1.02979216e+01
 -1.02962189e+01 -1.02948699e+01 -1.02938727e+01 -1.02925134e+01
 -1.02833282e+01 -1.02818763e+01 -1.02779937e+01 -1.02630291e+01
 -1.02483659e+01 -1.25390801e+00 -1.24562712e+00 -1.21570323e+00
 -1.16024870e+00 -1.12216845e+00 -1.03727072e+00 -1.01189545e+00
 -9.98765938e-01 -9.48473070e-01 -9.25668989e-01 -9.16989236e-01
 -9.04746675e-01 -8.78048706e-01 -8.68357324e-01 -8.15315053e-01
 -7.91781420e-01 -7.81779951e-01 -7.75900978e-01 -7.51146214e-01
 -7.33300747e-01 -7.16797216e-01 -7.01226759e-01 -6.72491301e-01
 -6.64958520e-01 -6.50184225e-01 -6.37793802e-01 -6.25398384e-01
 -6.13744559e-01 -6.10395337e-01 -6.01586572e-01 -5.91883918e-01
 -5.89149097e-01 -5.87059416e-01 -5.79780099e-01 -5.68610994e-01
 -5.60799201e-01 -5.57972718e-01 -5.47263588e-01 -5.40568117e-01
 -5.32199341e-01 -5.28696063e-01 -5.18238908e-01 -5.05256484e-01
 -5.02840285e-01 -4.98628009e-01 -4.94255127e-01 -4.86733927e-01
 -4.84268149e-01 -4.74563906e-01 -4.71167714e-01 -4.53340733e-01
 -4.46237488e-01 -4.42649056e-01 -4.08233852e-01 -3.83090817e-01
 -3.78274008e-01 -3.75929927e-01 -3.63305218e-01 -3.37748234e-01
 -3.33769740e-01 -2.84671150e-01 -2.62145223e-02 -3.04595067e-03
  3.08273794e-02  4.96569810e-02  6.49732709e-02  8.38735924e-02
  1.02046928e-01  1.07184756e-01  1.17988367e-01  1.21194827e-01
  1.25038557e-01  1.40169005e-01  1.41415920e-01  1.45369008e-01
  1.56819323e-01  1.60620513e-01  1.72677481e-01  1.75902769e-01
  1.84994522e-01  1.87991564e-01  1.93607060e-01  1.98317777e-01
  2.02366727e-01  2.17499304e-01  2.21165739e-01  2.30378184e-01
  2.35626145e-01  2.44121413e-01  2.50430427e-01  2.56755501e-01
  2.60055260e-01  2.64483977e-01  2.67594120e-01  2.68643930e-01
  2.72891277e-01  2.77722823e-01  2.80602800e-01  2.92470785e-01
  2.92934328e-01  2.98290089e-01  3.01261520e-01  3.08207866e-01
  3.09402357e-01  3.12933345e-01  3.15477759e-01  3.24358829e-01
  3.27665679e-01  3.30524662e-01  3.36941703e-01  3.43743875e-01
  3.46579770e-01  3.50640869e-01  3.54550256e-01  3.58731292e-01
  3.66140800e-01  3.69278803e-01  3.77009315e-01  3.82916566e-01
  3.86229589e-01  3.95817123e-01  3.97043375e-01  4.01683592e-01
  4.08541994e-01  4.13033692e-01  4.14864827e-01  4.17785350e-01
  4.18432385e-01  4.21953967e-01  4.24917659e-01  4.31697558e-01
  4.35907831e-01  4.38043030e-01  4.40964765e-01  4.46841551e-01
  4.49603747e-01  4.53619398e-01  4.56376524e-01  4.61224881e-01
  4.67105263e-01  4.73085862e-01  4.79219893e-01  4.81108824e-01
  4.85323862e-01  4.89986153e-01  4.99443013e-01  5.02004811e-01
  5.05753075e-01  5.10962863e-01  5.12944657e-01  5.16661069e-01
  5.20961175e-01  5.24592966e-01  5.28228835e-01  5.35051309e-01
  5.38388707e-01  5.40401767e-01  5.44496045e-01  5.51250746e-01
  5.52995215e-01  5.61952707e-01  5.65859048e-01  5.67678316e-01
  5.71551008e-01  5.77246732e-01  5.80477716e-01  5.86960734e-01
  5.91995263e-01  5.94675602e-01  6.01267076e-01  6.07894671e-01
  6.18839242e-01  6.21705853e-01  6.24047006e-01  6.30822611e-01
  6.37228254e-01  6.42910946e-01  6.48861704e-01  6.55818334e-01
  6.57745249e-01  6.72212695e-01  6.81754194e-01  6.90773781e-01
  6.98926612e-01  7.05665537e-01  7.10980075e-01  7.14007436e-01
  7.25460681e-01  7.29992485e-01  7.32172407e-01  7.40715665e-01
  7.45363345e-01  7.48060707e-01  7.52162830e-01  7.54582445e-01
  7.56808350e-01  7.59504176e-01  7.66832026e-01  7.68195549e-01
  7.76247805e-01  7.79010701e-01  7.87673958e-01  7.92230388e-01
  7.95711671e-01  8.04924169e-01  8.10450757e-01  8.15216531e-01
  8.19098790e-01  8.25037284e-01  8.30769899e-01  8.33866078e-01
  8.41531207e-01  8.45012797e-01  8.48458157e-01  8.54522695e-01
  8.63491125e-01  8.68323820e-01  8.70996512e-01  8.76548937e-01
  8.79733586e-01  8.83674400e-01  8.95758925e-01  8.99184619e-01
  9.04009344e-01  9.10475814e-01  9.16679499e-01  9.22750185e-01
  9.27853863e-01  9.32555978e-01  9.42884384e-01  9.52780471e-01
  9.54985200e-01  9.60282425e-01  9.62059363e-01  9.64974959e-01
  9.74486849e-01  9.78470572e-01  9.85088904e-01  9.90832417e-01
  9.94174107e-01  1.00212074e+00  1.00775388e+00  1.01640405e+00
  1.01938427e+00  1.02783448e+00  1.03537951e+00  1.04465336e+00
  1.05821524e+00  1.07046841e+00  1.08382765e+00  1.09151065e+00
  1.10262552e+00  1.10933018e+00  1.11628429e+00  1.11885512e+00
  1.12580256e+00  1.13540926e+00  1.14823727e+00  1.16838582e+00
  1.17231782e+00  1.17691906e+00  1.18575196e+00  1.19390930e+00
  1.19983728e+00  1.20457751e+00  1.20908332e+00  1.21984712e+00
  1.22364757e+00  1.22754383e+00  1.23634557e+00  1.24735810e+00
  1.25221317e+00  1.27121692e+00  1.27458673e+00  1.28628345e+00
  1.28846775e+00  1.30813261e+00  1.31423507e+00  1.31725837e+00
  1.32392311e+00  1.32967735e+00  1.33582319e+00  1.34117956e+00
  1.34614050e+00  1.35059327e+00  1.35542469e+00  1.36817937e+00
  1.37772114e+00  1.39291247e+00  1.39795948e+00  1.40276670e+00
  1.41092752e+00  1.41453025e+00  1.42356950e+00  1.42789641e+00
  1.43686364e+00  1.44164253e+00  1.46667318e+00  1.47234817e+00
  1.48358611e+00  1.49032098e+00  1.49758207e+00  1.50609377e+00
  1.51215869e+00  1.51598120e+00  1.52250346e+00  1.53597020e+00
  1.54650814e+00  1.55220997e+00  1.55982379e+00  1.56167544e+00
  1.57365277e+00  1.57491191e+00  1.58101675e+00  1.59108263e+00
  1.59493787e+00  1.60027580e+00  1.60618569e+00  1.60981091e+00
  1.62574938e+00  1.63231045e+00  1.63697620e+00  1.64130186e+00
  1.65575345e+00  1.65887286e+00  1.66644065e+00  1.67556757e+00
  1.68123275e+00  1.69170917e+00  1.69870439e+00  1.70505521e+00
  1.70724578e+00  1.71432224e+00  1.72665804e+00  1.73295747e+00
  1.73975556e+00  1.74655384e+00  1.75146540e+00  1.75226790e+00
  1.76405184e+00  1.76507725e+00  1.76688175e+00  1.77610927e+00
  1.78220062e+00  1.78606199e+00  1.79499344e+00  1.80298712e+00
  1.80967495e+00  1.82468956e+00  1.83097353e+00  1.83759085e+00
  1.83878631e+00  1.84558457e+00  1.85080352e+00  1.85785556e+00
  1.86668249e+00  1.87460597e+00  1.89950632e+00  1.90723247e+00
  1.91791034e+00  1.92623738e+00  1.93074025e+00  1.93709412e+00
  1.94531062e+00  1.95443361e+00  1.96398398e+00  1.96592904e+00
  1.97285082e+00  1.98787598e+00  1.98955350e+00  1.99602827e+00
  2.00502512e+00  2.01728245e+00  2.02165463e+00  2.02612106e+00
  2.04703570e+00  2.05948802e+00  2.06367098e+00  2.07716884e+00
  2.07871741e+00  2.09625658e+00  2.10172582e+00  2.10662997e+00
  2.11432466e+00  2.12629725e+00  2.13789222e+00  2.13963758e+00
  2.14600608e+00  2.15595340e+00  2.16691759e+00  2.17279358e+00
  2.18792495e+00  2.19374138e+00  2.19670055e+00  2.20066504e+00
  2.20919429e+00  2.21549477e+00  2.22204876e+00  2.23584101e+00
  2.24156270e+00  2.24837975e+00  2.25533610e+00  2.26069034e+00
  2.26874909e+00  2.28354167e+00  2.29221025e+00  2.29495746e+00
  2.30323144e+00  2.30889939e+00  2.31213442e+00  2.32276191e+00
  2.33403532e+00  2.34976936e+00  2.35712013e+00  2.36798460e+00
  2.38333189e+00  2.38381881e+00  2.38748108e+00  2.39426617e+00
  2.40176082e+00  2.41949628e+00  2.42951459e+00  2.44339968e+00
  2.44562677e+00  2.46014751e+00  2.46556709e+00  2.48987568e+00
  2.49096251e+00  2.51178373e+00  2.51462526e+00  2.52143377e+00
  2.54915342e+00  2.55515953e+00  2.55975128e+00  2.58577700e+00
  2.59835107e+00  2.61157437e+00  2.62098911e+00  2.64055664e+00
  2.64504324e+00  2.64633516e+00  2.65906503e+00  2.66499806e+00
  2.67010800e+00  2.67318488e+00  2.68454780e+00  2.68785634e+00
  2.69257866e+00  2.69696657e+00  2.71240914e+00  2.71751433e+00
  2.72257618e+00  2.72771264e+00  2.73555485e+00  2.73931927e+00
  2.74947476e+00  2.75280018e+00  2.75811282e+00  2.76391453e+00
  2.77090129e+00  2.77634008e+00  2.78446503e+00  2.78696819e+00
  2.79634988e+00  2.79960580e+00  2.80455693e+00  2.81457324e+00
  2.82010871e+00  2.83093036e+00  2.83598186e+00  2.83844665e+00
  2.84567178e+00  2.84787149e+00  2.85619846e+00  2.86404240e+00
  2.86693185e+00  2.86866146e+00  2.87938452e+00  2.88309094e+00
  2.89071107e+00  2.89770552e+00  2.90490251e+00  2.90657427e+00
  2.90853302e+00  2.91519214e+00  2.92139111e+00  2.92590606e+00
  2.93582323e+00  2.93955134e+00  2.94840157e+00  2.94993392e+00
  2.96013468e+00  2.96658847e+00  2.97706860e+00  2.98179523e+00
  2.99163637e+00  2.99438136e+00  3.00088623e+00  3.00301796e+00
  3.01895577e+00  3.02328204e+00  3.03288578e+00  3.03711977e+00
  3.04383967e+00  3.04755724e+00  3.05812375e+00  3.06167623e+00
  3.07287606e+00  3.08938867e+00  3.09198881e+00  3.09486005e+00
  3.10065116e+00  3.10829394e+00  3.11947314e+00  3.12286185e+00
  3.13643620e+00  3.14108436e+00  3.14368168e+00  3.15162528e+00
  3.15463815e+00  3.16506682e+00  3.16919769e+00  3.18219272e+00
  3.18541834e+00  3.18870454e+00  3.19355140e+00  3.20329447e+00
  3.21199176e+00  3.22286343e+00  3.23060157e+00  3.23426864e+00
  3.24152751e+00  3.24410620e+00  3.24812202e+00  3.25543195e+00
  3.25696393e+00  3.26756222e+00  3.26835280e+00  3.27245408e+00
  3.27904333e+00  3.28471594e+00  3.28752381e+00  3.30024317e+00
  3.30204300e+00  3.31353475e+00  3.31808726e+00  3.32722560e+00
  3.33850980e+00  3.34064346e+00  3.34481953e+00  3.35439370e+00
  3.35535248e+00  3.36452917e+00  3.37204582e+00  3.37916726e+00
  3.38190681e+00  3.39154746e+00  3.39332607e+00  3.39910754e+00
  3.40749032e+00  3.41148668e+00  3.41917782e+00  3.42065019e+00
  3.42664390e+00  3.43284585e+00  3.44005735e+00  3.44712469e+00
  3.45583564e+00  3.46044528e+00  3.46369806e+00  3.47305831e+00
  3.47467342e+00  3.48207786e+00  3.49069026e+00  3.49362031e+00
  3.49673794e+00  3.50303432e+00  3.50584141e+00  3.51671463e+00
  3.52145341e+00  3.52986382e+00  3.53328809e+00  3.54142083e+00
  3.54434390e+00  3.55177802e+00  3.55339376e+00  3.55939862e+00
  3.56269794e+00  3.56370538e+00  3.57309576e+00  3.58043131e+00
  3.58477098e+00  3.59631419e+00  3.60271833e+00  3.60748632e+00
  3.62042264e+00  3.62734085e+00  3.63150264e+00  3.64201474e+00
  3.64886706e+00  3.65751405e+00  3.66616447e+00  3.67796200e+00
  3.68306830e+00  3.68691421e+00  3.69450357e+00  3.70943227e+00
  3.71692145e+00  3.72962803e+00  3.73689624e+00  3.74497451e+00
  3.75563047e+00  3.76424152e+00  3.76841821e+00  3.77385762e+00
  3.80064958e+00  3.80883991e+00  3.81366564e+00  3.82833508e+00
  3.83813793e+00  3.85505194e+00  3.87519260e+00  3.88641236e+00
  3.89303611e+00  3.90870004e+00  3.91768677e+00  3.93081029e+00
  3.94691882e+00  3.95369895e+00  3.96344959e+00  3.97182352e+00
  3.97999241e+00  3.98703474e+00  3.99113660e+00  3.99438646e+00
  4.00881243e+00  4.01933015e+00  4.03166513e+00  4.03858755e+00
  4.04335061e+00  4.05948801e+00  4.06895888e+00  4.09684417e+00
  4.10477542e+00  4.13206851e+00  4.14358919e+00  4.14998798e+00
  4.15817685e+00  4.16666884e+00  4.17578459e+00  4.18665491e+00
  4.20365434e+00  4.21316404e+00  4.21892684e+00  4.23985826e+00
  4.24194790e+00  4.24465417e+00  4.25756742e+00  4.26763800e+00
  4.26996435e+00  4.27848762e+00  4.28807947e+00  4.29159404e+00
  4.29964595e+00  4.30526432e+00  4.31102145e+00  4.31353053e+00
  4.33627704e+00  4.34389161e+00  4.35498041e+00  4.38004627e+00
  4.38792442e+00  4.40273235e+00  4.43350054e+00  4.45480632e+00
  4.46018782e+00  4.47268484e+00  4.48299875e+00  4.49816142e+00
  4.51062440e+00  4.52058823e+00  4.53089996e+00  4.54200975e+00
  4.55487259e+00  4.57690217e+00  4.60870584e+00  4.62249972e+00
  4.62758871e+00  4.65246489e+00  4.67206960e+00  4.67865188e+00
  4.68960009e+00  4.69129356e+00  4.69357112e+00  4.72027443e+00
  4.74627776e+00  4.75262282e+00  4.78047172e+00  4.79695940e+00
  4.81256028e+00  4.83547518e+00  4.86660336e+00  4.87431124e+00
  4.88545386e+00  4.90128024e+00  4.91520307e+00  4.93678770e+00
  4.96903455e+00  4.98350157e+00  5.00508554e+00  5.01704189e+00
  5.02432716e+00  5.04066355e+00  5.06150415e+00  5.07327120e+00
  5.12695854e+00  5.15252903e+00  5.15552560e+00  5.17687325e+00
  5.18908467e+00  5.23989865e+00  5.24458273e+00  5.25514888e+00
  5.26213857e+00  5.28588051e+00  5.29711930e+00  5.32340717e+00
  5.34103611e+00  5.34588366e+00  5.35229552e+00  5.37712609e+00
  5.41150389e+00  5.42660829e+00  5.44743468e+00  5.44993562e+00
  5.47795103e+00  5.51180723e+00  5.54367785e+00  5.55421952e+00
  5.58146388e+00  5.58576656e+00  5.60019971e+00  5.62695282e+00
  5.63352587e+00  5.64298612e+00  5.68003591e+00  5.70042727e+00
  5.73402050e+00  5.80398912e+00  5.84016278e+00  5.84712613e+00
  5.87159656e+00  5.89476773e+00  5.89776553e+00  5.90728817e+00
  5.94626446e+00  5.95414164e+00  6.02728258e+00  6.04434755e+00
  6.07038576e+00  6.20666244e+00  6.22884104e+00  6.28999175e+00
  6.36600713e+00  6.37488447e+00  6.44124719e+00  6.46402370e+00
  6.47063804e+00  6.49277725e+00  6.51589084e+00  6.52117189e+00
  6.56073682e+00  6.57770351e+00  6.67640366e+00  6.70703294e+00
  6.73952663e+00  6.76336358e+00  6.78034614e+00  6.78925819e+00
  6.81679218e+00  6.87268264e+00  6.90771756e+00  6.91754251e+00
  6.92240628e+00  6.94149732e+00  6.95928925e+00  6.97200363e+00
  7.03836855e+00  7.07261662e+00  7.18577486e+00  7.19886047e+00
  7.22388795e+00  7.28955027e+00  7.35298602e+00  7.46094606e+00
  7.52834541e+00  7.57899902e+00  2.23094584e+01  2.23633859e+01
  2.25591590e+01  2.26094536e+01  2.26841991e+01  2.26872243e+01
  2.27256561e+01  2.28076106e+01  2.28417689e+01  2.28955147e+01
  2.29328707e+01  2.29455157e+01  2.30303290e+01  2.30786139e+01
  2.31094445e+01  2.32914987e+01  2.33511924e+01  2.34804238e+01
  2.35299165e+01  2.37844816e+01  4.39076447e+01  4.39470223e+01
  4.39935065e+01  4.40216090e+01  4.45383693e+01]
nelec by numeric integration = 172.0001413599347
    CPU time for vxc    103.05 sec, wall time      7.03 sec
    CPU time for df vj and vk    379.44 sec, wall time     28.84 sec
    CPU time for df vj and vk    271.44 sec, wall time     17.50 sec
E1 = -5665.4884450939635  Ecoul = 2609.168553077008  Exc = -155.72143917913226
cycle= 1 E= -1145.60048303882  delta_E= 4.55e-12  |g|= 3.51e-06  |ddm|= 7.91e-06
    CPU time for cycle= 1    760.97 sec, wall time     54.18 sec
  HOMO = -0.284671038510235  LUMO = -0.0262143500677088
  mo_energy =
[-1.92743588e+01 -1.92635390e+01 -1.92525206e+01 -1.92037598e+01
 -1.91430896e+01 -1.04182453e+01 -1.03600451e+01 -1.03567538e+01
 -1.03502758e+01 -1.03246875e+01 -1.03246802e+01 -1.03178265e+01
 -1.03121813e+01 -1.03016994e+01 -1.03014661e+01 -1.02979215e+01
 -1.02962193e+01 -1.02948700e+01 -1.02938719e+01 -1.02925130e+01
 -1.02833284e+01 -1.02818761e+01 -1.02779942e+01 -1.02630287e+01
 -1.02483652e+01 -1.25390814e+00 -1.24562715e+00 -1.21570371e+00
 -1.16024823e+00 -1.12216869e+00 -1.03727066e+00 -1.01189552e+00
 -9.98765690e-01 -9.48472970e-01 -9.25669203e-01 -9.16989193e-01
 -9.04746690e-01 -8.78048587e-01 -8.68357139e-01 -8.15315160e-01
 -7.91781422e-01 -7.81779937e-01 -7.75900970e-01 -7.51146317e-01
 -7.33300588e-01 -7.16797294e-01 -7.01226792e-01 -6.72491293e-01
 -6.64958558e-01 -6.50184201e-01 -6.37793737e-01 -6.25398163e-01
 -6.13744538e-01 -6.10395300e-01 -6.01586608e-01 -5.91883914e-01
 -5.89149169e-01 -5.87059347e-01 -5.79779990e-01 -5.68610967e-01
 -5.60799114e-01 -5.57972711e-01 -5.47263892e-01 -5.40568003e-01
 -5.32199323e-01 -5.28696213e-01 -5.18239002e-01 -5.05256564e-01
 -5.02840195e-01 -4.98628075e-01 -4.94255204e-01 -4.86733992e-01
 -4.84268189e-01 -4.74563838e-01 -4.71167674e-01 -4.53340563e-01
 -4.46237373e-01 -4.42648897e-01 -4.08233237e-01 -3.83090877e-01
 -3.78274004e-01 -3.75929892e-01 -3.63305191e-01 -3.37748145e-01
 -3.33770021e-01 -2.84671039e-01 -2.62143501e-02 -3.04596736e-03
  3.08273476e-02  4.96569688e-02  6.49733371e-02  8.38738159e-02
  1.02046847e-01  1.07184715e-01  1.17988371e-01  1.21194782e-01
  1.25038543e-01  1.40169087e-01  1.41416011e-01  1.45369016e-01
  1.56819321e-01  1.60620526e-01  1.72677445e-01  1.75902777e-01
  1.84994576e-01  1.87991486e-01  1.93607137e-01  1.98317844e-01
  2.02366767e-01  2.17499259e-01  2.21165796e-01  2.30378238e-01
  2.35626177e-01  2.44121435e-01  2.50430507e-01  2.56755526e-01
  2.60055310e-01  2.64484027e-01  2.67594146e-01  2.68644009e-01
  2.72891262e-01  2.77722846e-01  2.80602794e-01  2.92470800e-01
  2.92934312e-01  2.98290125e-01  3.01261511e-01  3.08207840e-01
  3.09402404e-01  3.12933347e-01  3.15477849e-01  3.24358888e-01
  3.27665706e-01  3.30524667e-01  3.36941699e-01  3.43743910e-01
  3.46579765e-01  3.50640843e-01  3.54550259e-01  3.58731347e-01
  3.66140885e-01  3.69278825e-01  3.77009331e-01  3.82916553e-01
  3.86229647e-01  3.95817174e-01  3.97043448e-01  4.01683606e-01
  4.08542027e-01  4.13033720e-01  4.14864844e-01  4.17785402e-01
  4.18432378e-01  4.21953997e-01  4.24917694e-01  4.31697596e-01
  4.35907783e-01  4.38043022e-01  4.40964810e-01  4.46841536e-01
  4.49603790e-01  4.53619423e-01  4.56376569e-01  4.61224960e-01
  4.67105279e-01  4.73085863e-01  4.79219930e-01  4.81108772e-01
  4.85323894e-01  4.89986224e-01  4.99443020e-01  5.02004874e-01
  5.05753095e-01  5.10962869e-01  5.12944730e-01  5.16661100e-01
  5.20961198e-01  5.24593095e-01  5.28228864e-01  5.35051358e-01
  5.38388749e-01  5.40401726e-01  5.44496106e-01  5.51250778e-01
  5.52995267e-01  5.61952748e-01  5.65859061e-01  5.67678354e-01
  5.71551052e-01  5.77246736e-01  5.80477767e-01  5.86960777e-01
  5.91995263e-01  5.94675615e-01  6.01267105e-01  6.07894693e-01
  6.18839304e-01  6.21705891e-01  6.24046966e-01  6.30822697e-01
  6.37228354e-01  6.42910901e-01  6.48861783e-01  6.55818360e-01
  6.57745309e-01  6.72212702e-01  6.81754277e-01  6.90773761e-01
  6.98926600e-01  7.05665564e-01  7.10980063e-01  7.14007490e-01
  7.25460759e-01  7.29992560e-01  7.32172416e-01  7.40715741e-01
  7.45363331e-01  7.48060720e-01  7.52162875e-01  7.54582557e-01
  7.56808330e-01  7.59504247e-01  7.66832074e-01  7.68195590e-01
  7.76247843e-01  7.79010737e-01  7.87674040e-01  7.92230375e-01
  7.95711750e-01  8.04924285e-01  8.10450840e-01  8.15216625e-01
  8.19098810e-01  8.25037316e-01  8.30769872e-01  8.33866118e-01
  8.41531258e-01  8.45012908e-01  8.48458220e-01  8.54522770e-01
  8.63491191e-01  8.68323821e-01  8.70996575e-01  8.76549014e-01
  8.79733679e-01  8.83674462e-01  8.95758964e-01  8.99184726e-01
  9.04009400e-01  9.10475835e-01  9.16679532e-01  9.22750139e-01
  9.27853859e-01  9.32556026e-01  9.42884479e-01  9.52780519e-01
  9.54985250e-01  9.60282492e-01  9.62059409e-01  9.64975043e-01
  9.74486839e-01  9.78470601e-01  9.85088904e-01  9.90832441e-01
  9.94174130e-01  1.00212080e+00  1.00775398e+00  1.01640411e+00
  1.01938432e+00  1.02783455e+00  1.03537952e+00  1.04465341e+00
  1.05821526e+00  1.07046843e+00  1.08382765e+00  1.09151074e+00
  1.10262551e+00  1.10933028e+00  1.11628435e+00  1.11885519e+00
  1.12580258e+00  1.13540931e+00  1.14823740e+00  1.16838587e+00
  1.17231782e+00  1.17691910e+00  1.18575196e+00  1.19390927e+00
  1.19983732e+00  1.20457751e+00  1.20908333e+00  1.21984710e+00
  1.22364757e+00  1.22754387e+00  1.23634561e+00  1.24735814e+00
  1.25221319e+00  1.27121693e+00  1.27458681e+00  1.28628354e+00
  1.28846774e+00  1.30813270e+00  1.31423514e+00  1.31725840e+00
  1.32392320e+00  1.32967742e+00  1.33582315e+00  1.34117959e+00
  1.34614058e+00  1.35059331e+00  1.35542476e+00  1.36817937e+00
  1.37772121e+00  1.39291246e+00  1.39795952e+00  1.40276663e+00
  1.41092755e+00  1.41453029e+00  1.42356955e+00  1.42789641e+00
  1.43686363e+00  1.44164256e+00  1.46667315e+00  1.47234821e+00
  1.48358612e+00  1.49032101e+00  1.49758218e+00  1.50609389e+00
  1.51215879e+00  1.51598127e+00  1.52250351e+00  1.53597016e+00
  1.54650818e+00  1.55220998e+00  1.55982388e+00  1.56167544e+00
  1.57365280e+00  1.57491193e+00  1.58101682e+00  1.59108265e+00
  1.59493800e+00  1.60027578e+00  1.60618574e+00  1.60981097e+00
  1.62574938e+00  1.63231055e+00  1.63697625e+00  1.64130189e+00
  1.65575352e+00  1.65887292e+00  1.66644069e+00  1.67556761e+00
  1.68123275e+00  1.69170921e+00  1.69870449e+00  1.70505527e+00
  1.70724590e+00  1.71432225e+00  1.72665816e+00  1.73295746e+00
  1.73975563e+00  1.74655392e+00  1.75146549e+00  1.75226789e+00
  1.76405191e+00  1.76507729e+00  1.76688174e+00  1.77610928e+00
  1.78220071e+00  1.78606202e+00  1.79499344e+00  1.80298713e+00
  1.80967494e+00  1.82468959e+00  1.83097358e+00  1.83759091e+00
  1.83878632e+00  1.84558458e+00  1.85080354e+00  1.85785561e+00
  1.86668255e+00  1.87460606e+00  1.89950639e+00  1.90723238e+00
  1.91791042e+00  1.92623742e+00  1.93074019e+00  1.93709414e+00
  1.94531069e+00  1.95443359e+00  1.96398403e+00  1.96592911e+00
  1.97285085e+00  1.98787593e+00  1.98955354e+00  1.99602831e+00
  2.00502518e+00  2.01728254e+00  2.02165460e+00  2.02612104e+00
  2.04703575e+00  2.05948807e+00  2.06367104e+00  2.07716888e+00
  2.07871735e+00  2.09625653e+00  2.10172577e+00  2.10663000e+00
  2.11432467e+00  2.12629729e+00  2.13789225e+00  2.13963757e+00
  2.14600612e+00  2.15595346e+00  2.16691757e+00  2.17279366e+00
  2.18792493e+00  2.19374140e+00  2.19670056e+00  2.20066503e+00
  2.20919429e+00  2.21549479e+00  2.22204876e+00  2.23584089e+00
  2.24156274e+00  2.24837980e+00  2.25533618e+00  2.26069042e+00
  2.26874913e+00  2.28354171e+00  2.29221034e+00  2.29495753e+00
  2.30323163e+00  2.30889942e+00  2.31213459e+00  2.32276187e+00
  2.33403537e+00  2.34976930e+00  2.35712007e+00  2.36798460e+00
  2.38333199e+00  2.38381891e+00  2.38748106e+00  2.39426620e+00
  2.40176086e+00  2.41949633e+00  2.42951470e+00  2.44339968e+00
  2.44562684e+00  2.46014752e+00  2.46556724e+00  2.48987571e+00
  2.49096254e+00  2.51178371e+00  2.51462533e+00  2.52143372e+00
  2.54915345e+00  2.55515950e+00  2.55975136e+00  2.58577713e+00
  2.59835101e+00  2.61157452e+00  2.62098923e+00  2.64055660e+00
  2.64504331e+00  2.64633517e+00  2.65906494e+00  2.66499807e+00
  2.67010803e+00  2.67318500e+00  2.68454779e+00  2.68785634e+00
  2.69257856e+00  2.69696658e+00  2.71240923e+00  2.71751433e+00
  2.72257627e+00  2.72771253e+00  2.73555470e+00  2.73931928e+00
  2.74947485e+00  2.75280021e+00  2.75811286e+00  2.76391454e+00
  2.77090137e+00  2.77634015e+00  2.78446512e+00  2.78696821e+00
  2.79634980e+00  2.79960588e+00  2.80455701e+00  2.81457324e+00
  2.82010856e+00  2.83093028e+00  2.83598189e+00  2.83844675e+00
  2.84567179e+00  2.84787153e+00  2.85619858e+00  2.86404268e+00
  2.86693189e+00  2.86866145e+00  2.87938450e+00  2.88309112e+00
  2.89071119e+00  2.89770561e+00  2.90490254e+00  2.90657435e+00
  2.90853309e+00  2.91519210e+00  2.92139105e+00  2.92590611e+00
  2.93582327e+00  2.93955147e+00  2.94840150e+00  2.94993390e+00
  2.96013457e+00  2.96658851e+00  2.97706856e+00  2.98179524e+00
  2.99163636e+00  2.99438139e+00  3.00088626e+00  3.00301794e+00
  3.01895585e+00  3.02328213e+00  3.03288588e+00  3.03711982e+00
  3.04383968e+00  3.04755728e+00  3.05812376e+00  3.06167619e+00
  3.07287611e+00  3.08938876e+00  3.09198893e+00  3.09486004e+00
  3.10065127e+00  3.10829406e+00  3.11947321e+00  3.12286193e+00
  3.13643620e+00  3.14108430e+00  3.14368169e+00  3.15162529e+00
  3.15463828e+00  3.16506683e+00  3.16919765e+00  3.18219271e+00
  3.18541838e+00  3.18870453e+00  3.19355138e+00  3.20329439e+00
  3.21199176e+00  3.22286349e+00  3.23060168e+00  3.23426870e+00
  3.24152759e+00  3.24410617e+00  3.24812204e+00  3.25543189e+00
  3.25696394e+00  3.26756222e+00  3.26835285e+00  3.27245411e+00
  3.27904338e+00  3.28471603e+00  3.28752390e+00  3.30024322e+00
  3.30204301e+00  3.31353478e+00  3.31808731e+00  3.32722561e+00
  3.33850981e+00  3.34064347e+00  3.34481954e+00  3.35439389e+00
  3.35535249e+00  3.36452927e+00  3.37204585e+00  3.37916727e+00
  3.38190692e+00  3.39154745e+00  3.39332610e+00  3.39910754e+00
  3.40749034e+00  3.41148672e+00  3.41917775e+00  3.42065018e+00
  3.42664387e+00  3.43284588e+00  3.44005729e+00  3.44712479e+00
  3.45583569e+00  3.46044533e+00  3.46369808e+00  3.47305843e+00
  3.47467345e+00  3.48207792e+00  3.49069044e+00  3.49362035e+00
  3.49673805e+00  3.50303436e+00  3.50584146e+00  3.51671476e+00
  3.52145350e+00  3.52986394e+00  3.53328819e+00  3.54142088e+00
  3.54434394e+00  3.55177808e+00  3.55339385e+00  3.55939879e+00
  3.56269799e+00  3.56370539e+00  3.57309588e+00  3.58043141e+00
  3.58477099e+00  3.59631416e+00  3.60271839e+00  3.60748635e+00
  3.62042267e+00  3.62734093e+00  3.63150270e+00  3.64201482e+00
  3.64886714e+00  3.65751418e+00  3.66616450e+00  3.67796207e+00
  3.68306840e+00  3.68691430e+00  3.69450372e+00  3.70943229e+00
  3.71692151e+00  3.72962802e+00  3.73689626e+00  3.74497458e+00
  3.75563048e+00  3.76424166e+00  3.76841824e+00  3.77385778e+00
  3.80064971e+00  3.80884007e+00  3.81366577e+00  3.82833519e+00
  3.83813798e+00  3.85505204e+00  3.87519265e+00  3.88641240e+00
  3.89303609e+00  3.90870008e+00  3.91768684e+00  3.93081034e+00
  3.94691873e+00  3.95369906e+00  3.96344974e+00  3.97182352e+00
  3.97999243e+00  3.98703483e+00  3.99113653e+00  3.99438649e+00
  4.00881255e+00  4.01933016e+00  4.03166529e+00  4.03858758e+00
  4.04335063e+00  4.05948806e+00  4.06895892e+00  4.09684421e+00
  4.10477533e+00  4.13206854e+00  4.14358942e+00  4.14998812e+00
  4.15817690e+00  4.16666894e+00  4.17578468e+00  4.18665490e+00
  4.20365441e+00  4.21316404e+00  4.21892685e+00  4.23985827e+00
  4.24194791e+00  4.24465428e+00  4.25756758e+00  4.26763800e+00
  4.26996441e+00  4.27848762e+00  4.28807941e+00  4.29159407e+00
  4.29964598e+00  4.30526432e+00  4.31102141e+00  4.31353046e+00
  4.33627704e+00  4.34389188e+00  4.35498048e+00  4.38004624e+00
  4.38792437e+00  4.40273244e+00  4.43350056e+00  4.45480641e+00
  4.46018790e+00  4.47268491e+00  4.48299886e+00  4.49816156e+00
  4.51062449e+00  4.52058842e+00  4.53090005e+00  4.54200977e+00
  4.55487269e+00  4.57690231e+00  4.60870584e+00  4.62249980e+00
  4.62758881e+00  4.65246491e+00  4.67206962e+00  4.67865192e+00
  4.68960013e+00  4.69129355e+00  4.69357117e+00  4.72027443e+00
  4.74627776e+00  4.75262286e+00  4.78047183e+00  4.79695954e+00
  4.81256034e+00  4.83547525e+00  4.86660338e+00  4.87431133e+00
  4.88545397e+00  4.90128027e+00  4.91520294e+00  4.93678773e+00
  4.96903470e+00  4.98350172e+00  5.00508565e+00  5.01704175e+00
  5.02432721e+00  5.04066351e+00  5.06150417e+00  5.07327119e+00
  5.12695864e+00  5.15252907e+00  5.15552557e+00  5.17687343e+00
  5.18908475e+00  5.23989886e+00  5.24458266e+00  5.25514884e+00
  5.26213852e+00  5.28588056e+00  5.29711975e+00  5.32340782e+00
  5.34103567e+00  5.34588391e+00  5.35229506e+00  5.37712584e+00
  5.41150394e+00  5.42660819e+00  5.44743450e+00  5.44993530e+00
  5.47795121e+00  5.51180734e+00  5.54367794e+00  5.55421908e+00
  5.58146415e+00  5.58576646e+00  5.60019963e+00  5.62695287e+00
  5.63352597e+00  5.64298621e+00  5.68003586e+00  5.70042692e+00
  5.73402083e+00  5.80398932e+00  5.84016251e+00  5.84712622e+00
  5.87159669e+00  5.89476770e+00  5.89776527e+00  5.90728807e+00
  5.94626460e+00  5.95414163e+00  6.02728251e+00  6.04434732e+00
  6.07038536e+00  6.20666210e+00  6.22884182e+00  6.28999171e+00
  6.36600677e+00  6.37488413e+00  6.44124724e+00  6.46402323e+00
  6.47063875e+00  6.49277665e+00  6.51589015e+00  6.52117165e+00
  6.56073771e+00  6.57770342e+00  6.67640480e+00  6.70703278e+00
  6.73952627e+00  6.76336314e+00  6.78034569e+00  6.78925763e+00
  6.81679234e+00  6.87268215e+00  6.90771758e+00  6.91754244e+00
  6.92240753e+00  6.94149671e+00  6.95928911e+00  6.97200347e+00
  7.03836836e+00  7.07261605e+00  7.18577595e+00  7.19885994e+00
  7.22388739e+00  7.28955107e+00  7.35298552e+00  7.46094587e+00
  7.52834528e+00  7.57899889e+00  2.23094582e+01  2.23633859e+01
  2.25591591e+01  2.26094533e+01  2.26841991e+01  2.26872241e+01
  2.27256560e+01  2.28076106e+01  2.28417689e+01  2.28955146e+01
  2.29328707e+01  2.29455160e+01  2.30303290e+01  2.30786141e+01
  2.31094449e+01  2.32914992e+01  2.33511921e+01  2.34804237e+01
  2.35299169e+01  2.37844819e+01  4.39076437e+01  4.39470214e+01
  4.39935054e+01  4.40216117e+01  4.45383688e+01]
nelec by numeric integration = 172.00014135991776
    CPU time for vxc     98.28 sec, wall time      6.72 sec
    CPU time for df vj and vk    373.62 sec, wall time     28.21 sec
    CPU time for df vj and vk    280.07 sec, wall time     18.26 sec
E1 = -5665.488433587842  Ecoul = 2609.168542416219  Exc = -155.72144002446746
Extra cycle  E= -1145.60048303882  delta_E= -2.73e-12  |g|= 5.05e-06  |ddm|= 1.33e-05
    CPU time for scf_cycle   2864.67 sec, wall time    237.79 sec
    CPU time for SCF   2864.67 sec, wall time    237.79 sec
converged SCF energy = -1145.60048303882
SCF Done after  237.7907 seconds
after SCF memory used: 11104.421875 MB
Converting <class 'pyscf.df.df_jk.density_fit.<locals>.DFHF'> to RHF
Converting <class 'pyscf.df.df_jk.density_fit.<locals>.DFHF'> to RHF
a_x = 0.56
beta = 8.0
alpha = 4.58
hdiag (65446,)
n_occ =  86
n_vir =  761
max_vir =  200
Q-Gamma tensors building time = 12.6223
after Q matrix memory used: 11472.859375 MB
-------------------------------------------------------------------
|---------------   In-house Developed Davidson Starts   -----------|
Residual conv = 1e-05
Number of excited states = 1
Initial guess:   sTDA
Preconditioner:  sTDA
A matrix size =  65446 * 65446
sTDA nstate = 2
sTDA A diagonalization: threshold = 0.001 ; in 6 steps  0.3477 seconds
sTDA excitation energies:
[3.46567266 3.64625858]
Intial guess time: 0.3602 seconds
    CPU time for df vj and vk    733.70 sec, wall time     54.05 sec
    CPU time for df vj and vk    542.91 sec, wall time     35.39 sec
Iteration  0
subspace size:  2
maximum residual norm 0.042488200239472466
sTDA Preconditioning Done after  4 steps;  0.0882 seconds
subgencost 0.0051 5.81 %
mvcost 0.0482 54.69 %
GScost 0.0045 5.11 %
subcost 0.0015 1.71 %
m,new_m 2 3
    CPU time for df vj and vk    376.19 sec, wall time     28.79 sec
    CPU time for df vj and vk    271.24 sec, wall time     17.63 sec
new generated guesses: 1
Iteration  1
subspace size:  3
maximum residual norm 0.009354449957937286
sTDA Preconditioning Done after  7 steps;  0.1352 seconds
subgencost 0.0114 8.4 %
mvcost 0.0771 57.03 %
GScost 0.0099 7.31 %
subcost 0.0023 1.68 %
m,new_m 3 4
    CPU time for df vj and vk    378.28 sec, wall time     29.10 sec
    CPU time for df vj and vk    267.55 sec, wall time     17.33 sec
new generated guesses: 1
Iteration  2
subspace size:  4
maximum residual norm 0.04499171718446224
sTDA Preconditioning Done after  11 steps;  0.1937 seconds
subgencost 0.0202 10.44 %
mvcost 0.1197 61.77 %
GScost 0.0193 9.96 %
subcost 0.0037 1.89 %
m,new_m 4 5
    CPU time for df vj and vk    379.83 sec, wall time     28.48 sec
    CPU time for df vj and vk    271.99 sec, wall time     17.75 sec
new generated guesses: 1
Iteration  3
subspace size:  5
maximum residual norm 0.026339658270913665
sTDA Preconditioning Done after  7 steps;  0.1431 seconds
subgencost 0.0114 8.0 %
mvcost 0.0812 56.76 %
GScost 0.012 8.42 %
subcost 0.0025 1.73 %
m,new_m 5 6
    CPU time for df vj and vk    372.59 sec, wall time     28.14 sec
    CPU time for df vj and vk    272.43 sec, wall time     17.60 sec
new generated guesses: 1
Iteration  4
subspace size:  6
maximum residual norm 0.007206251877893588
sTDA Preconditioning Done after  7 steps;  0.12 seconds
subgencost 0.0101 8.45 %
mvcost 0.0744 61.99 %
GScost 0.0095 7.91 %
subcost 0.0022 1.81 %
m,new_m 6 7
    CPU time for df vj and vk    375.20 sec, wall time     28.32 sec
    CPU time for df vj and vk    273.52 sec, wall time     17.77 sec
new generated guesses: 1
Iteration  5
subspace size:  7
maximum residual norm 0.0033207528045646304
sTDA Preconditioning Done after  7 steps;  0.1564 seconds
subgencost 0.0114 7.28 %
mvcost 0.1034 66.13 %
GScost 0.0107 6.85 %
subcost 0.0024 1.55 %
m,new_m 7 8
    CPU time for df vj and vk    380.90 sec, wall time     28.73 sec
    CPU time for df vj and vk    270.82 sec, wall time     17.54 sec
new generated guesses: 1
Iteration  6
subspace size:  8
maximum residual norm 0.0009946711258401447
sTDA Preconditioning Done after  7 steps;  0.1396 seconds
subgencost 0.012 8.58 %
mvcost 0.0863 61.79 %
GScost 0.0115 8.21 %
subcost 0.0026 1.83 %
m,new_m 8 9
    CPU time for df vj and vk    372.48 sec, wall time     28.14 sec
    CPU time for df vj and vk    271.71 sec, wall time     17.73 sec
new generated guesses: 1
Iteration  7
subspace size:  9
maximum residual norm 0.00031989782286370114
sTDA Preconditioning Done after  5 steps;  0.0875 seconds
subgencost 0.0063 7.2 %
mvcost 0.0532 60.76 %
GScost 0.0057 6.53 %
subcost 0.0016 1.82 %
m,new_m 9 10
    CPU time for df vj and vk    380.55 sec, wall time     28.76 sec
    CPU time for df vj and vk    269.13 sec, wall time     17.55 sec
new generated guesses: 1
Iteration  8
subspace size:  10
maximum residual norm 9.25093483936582e-05
sTDA Preconditioning Done after  7 steps;  0.1076 seconds
subgencost 0.01 9.26 %
mvcost 0.0644 59.88 %
GScost 0.0095 8.84 %
subcost 0.0022 2.02 %
m,new_m 10 11
    CPU time for df vj and vk    381.69 sec, wall time     28.96 sec
    CPU time for df vj and vk    270.89 sec, wall time     17.47 sec
new generated guesses: 1
Iteration  9
subspace size:  11
maximum residual norm 3.282568667790243e-05
sTDA Preconditioning Done after  6 steps;  0.0937 seconds
subgencost 0.0082 8.74 %
mvcost 0.0555 59.28 %
GScost 0.0075 8.03 %
subcost 0.0019 2.03 %
m,new_m 11 12
    CPU time for df vj and vk    377.80 sec, wall time     28.81 sec
    CPU time for df vj and vk    271.06 sec, wall time     17.62 sec
new generated guesses: 1
Iteration  10
subspace size:  12
maximum residual norm 8.284626308559594e-06
Davidson procedure aborted
Davidson done after  655.0152 seconds
Total steps = 11
Final subspace shape =  (12, 12)
Preconditioning time: 1.2743 0.19 %
In-house Davidson time: 655.021 seconds
Excited State energies (eV) =
[3.54812459]
|---------------   In-house Developed Davidson Done   -----------|
-------------------------------------------------------------------
|---------------   In-house Developed Davidson Starts   -----------|
Residual conv = 1e-05
Number of excited states = 1
Initial guess:   Adiag
Preconditioner:  Adiag
A matrix size =  65446 * 65446
Intial guess time: 0.0043 seconds
    CPU time for df vj and vk    748.06 sec, wall time     55.98 sec
    CPU time for df vj and vk    548.15 sec, wall time     35.71 sec
Iteration  0
subspace size:  2
maximum residual norm 0.1531031747898968
m,new_m 2 3
    CPU time for df vj and vk    392.82 sec, wall time     30.82 sec
    CPU time for df vj and vk    273.02 sec, wall time     17.62 sec
new generated guesses: 1
Iteration  1
subspace size:  3
maximum residual norm 0.047182145727324286
m,new_m 3 4
    CPU time for df vj and vk    378.51 sec, wall time     29.58 sec
    CPU time for df vj and vk    276.72 sec, wall time     17.99 sec
new generated guesses: 1
Iteration  2
subspace size:  4
maximum residual norm 0.02247433803150591
m,new_m 4 5
    CPU time for df vj and vk    374.09 sec, wall time     28.16 sec
    CPU time for df vj and vk    268.92 sec, wall time     17.42 sec
new generated guesses: 1
Iteration  3
subspace size:  5
maximum residual norm 0.011219327953329394
m,new_m 5 6
    CPU time for df vj and vk    386.98 sec, wall time     29.78 sec
    CPU time for df vj and vk    270.53 sec, wall time     17.61 sec
new generated guesses: 1
Iteration  4
subspace size:  6
maximum residual norm 0.006831964755206189
m,new_m 6 7
    CPU time for df vj and vk    378.53 sec, wall time     28.58 sec
    CPU time for df vj and vk    270.31 sec, wall time     17.65 sec
new generated guesses: 1
Iteration  5
subspace size:  7
maximum residual norm 0.004892580825338547
m,new_m 7 8
    CPU time for df vj and vk    372.72 sec, wall time     28.21 sec
    CPU time for df vj and vk    276.32 sec, wall time     18.12 sec
new generated guesses: 1
Iteration  6
subspace size:  8
maximum residual norm 0.0029924695424273493
m,new_m 8 9
    CPU time for df vj and vk    379.37 sec, wall time     28.67 sec
    CPU time for df vj and vk    268.68 sec, wall time     17.42 sec
new generated guesses: 1
Iteration  7
subspace size:  9
maximum residual norm 0.0016126629909234153
m,new_m 9 10
    CPU time for df vj and vk    371.02 sec, wall time     28.15 sec
    CPU time for df vj and vk    277.96 sec, wall time     18.11 sec
new generated guesses: 1
Iteration  8
subspace size:  10
maximum residual norm 0.0008217213599553217
m,new_m 10 11
    CPU time for df vj and vk    379.10 sec, wall time     28.79 sec
    CPU time for df vj and vk    268.25 sec, wall time     17.43 sec
new generated guesses: 1
Iteration  9
subspace size:  11
maximum residual norm 0.00040916988788972536
m,new_m 11 12
    CPU time for df vj and vk    374.61 sec, wall time     28.33 sec
    CPU time for df vj and vk    270.00 sec, wall time     17.76 sec
new generated guesses: 1
Iteration  10
subspace size:  12
maximum residual norm 0.00025385805828180514
m,new_m 12 13
    CPU time for df vj and vk    389.39 sec, wall time     30.28 sec
    CPU time for df vj and vk    269.52 sec, wall time     17.70 sec
new generated guesses: 1
Iteration  11
subspace size:  13
maximum residual norm 0.00029994789803280465
m,new_m 13 14
    CPU time for df vj and vk    377.22 sec, wall time     28.87 sec
    CPU time for df vj and vk    280.15 sec, wall time     18.22 sec
new generated guesses: 1
Iteration  12
subspace size:  14
maximum residual norm 0.000385628548483683
m,new_m 14 15
    CPU time for df vj and vk    382.02 sec, wall time     30.31 sec
    CPU time for df vj and vk    272.03 sec, wall time     17.60 sec
new generated guesses: 1
Iteration  13
subspace size:  15
maximum residual norm 0.0005066380104828466
m,new_m 15 16
    CPU time for df vj and vk    376.49 sec, wall time     28.92 sec
    CPU time for df vj and vk    268.78 sec, wall time     17.38 sec
new generated guesses: 1
Iteration  14
subspace size:  16
maximum residual norm 0.0002466348814778663
m,new_m 16 17
    CPU time for df vj and vk    385.98 sec, wall time     30.36 sec
    CPU time for df vj and vk    277.31 sec, wall time     18.28 sec
new generated guesses: 1
Iteration  15
subspace size:  17
maximum residual norm 0.00013863590706329334
m,new_m 17 18
    CPU time for df vj and vk    382.77 sec, wall time     29.32 sec
    CPU time for df vj and vk    274.75 sec, wall time     17.79 sec
new generated guesses: 1
Iteration  16
subspace size:  18
maximum residual norm 7.900557925794428e-05
m,new_m 18 19
    CPU time for df vj and vk    374.03 sec, wall time     28.09 sec
    CPU time for df vj and vk    276.26 sec, wall time     17.90 sec
new generated guesses: 1
Iteration  17
subspace size:  19
maximum residual norm 4.229667317233922e-05
m,new_m 19 20
    CPU time for df vj and vk    381.28 sec, wall time     28.69 sec
    CPU time for df vj and vk    268.07 sec, wall time     17.30 sec
new generated guesses: 1
Iteration  18
subspace size:  20
maximum residual norm 1.8848162051715125e-05
m,new_m 20 21
    CPU time for df vj and vk    382.38 sec, wall time     29.07 sec
    CPU time for df vj and vk    270.66 sec, wall time     17.71 sec
new generated guesses: 1
Iteration  19
subspace size:  21
maximum residual norm 8.36011444345355e-06
Davidson procedure aborted
Davidson done after  1167.1271 seconds
Total steps = 20
Final subspace shape =  (21, 21)
Preconditioning time: 0.0334 0.0 %
In-house Davidson time: 1167.1311 seconds
Excited State energies (eV) =
[3.54812459]
|---------------   In-house Developed Davidson Done   -----------|
xyzfile = 37_Fluorescein.xyz
checkfile = True
method = RKS
functional = wb97x
basis_set = def2-tzvp
density_fit = True
grid_level = 3
nstates = 1
pytd = False
TDA = True
TDDFT = False
dynpol = False
dynpol_omega = []
stapol = False
sTDA = False
sTDDFT = False
Truncate_test = False
truncate_virtual = 40.0
TDA_options = [0, 1]
TDDFT_options = [0]
dynpol_options = [0]
stapol_options = [0]
TDA_tolerance = 1e-05
TDDFT_tolerance = 1e-05
dynpol_tolerance = 1e-05
stapol_tolerance = 1e-05
max = 35
TDA_initialTOL = 0.001
TDDFT_initialTOL = 0.001
dynpol_initprecTOL = 0.01
stapol_initprecTOL = 0.01
TDA_precondTOL = 0.01
TDDFT_precondTOL = 0.01
TDA_extrainitial = 8
TDDFT_extrainitial = 8
TDDFT_extrainitial_3n = False
eigensolver_tol = 1e-05
memory = 50000
verbose = 5
beta = []
alpha = []
