curpath /scratch/pbsjobs/job.15971889.hpc
lib.num_threads() =  16
at beginning memory used: 51.87109375 MB
mol.max_memory 50000


System: uname_result(system='Linux', node='compt179', release='3.10.0-1127.el7.x86_64', version='#1 SMP Tue Feb 18 16:39:12 EST 2020', machine='x86_64', processor='x86_64')  Threads 16
Python 3.7.0 (default, Aug 23 2018, 14:24:33) 
[GCC 6.3.0]
numpy 1.18.1  scipy 1.4.1
Date: Wed Jul  7 14:46:39 2021
PySCF version 1.7.4
PySCF path  /home/zzz6/.local/lib/python3.7/site-packages/pyscf

[CONFIG] conf_file None
[INPUT] verbose = 5
[INPUT] max_memory = 50000 
[INPUT] num. atoms = 37
[INPUT] num. electrons = 182
[INPUT] charge = 0
[INPUT] spin (= nelec alpha-beta = 2S) = 0
[INPUT] symmetry False subgroup None
[INPUT] Mole.unit = angstrom
[INPUT]  1 C      5.539472397252  -2.559190489899  -0.063472757804 AA   10.468085705394  -4.836169126501  -0.119946128621 Bohr
[INPUT]  2 C      5.976270596530  -1.270921113302  -0.293638598156 AA   11.293514673732  -2.401692830068  -0.554896530116 Bohr
[INPUT]  3 C      4.909597399923  -0.329157071246  -0.345690617648 AA    9.277794467732  -0.622016716619  -0.653260591187 Bohr
[INPUT]  4 C      3.657710160230  -0.904747597797  -0.154411186286 AA    6.912070445874  -1.709725171695  -0.291794852649 Bohr
[INPUT]  5 S      3.815985695423  -2.633019445726   0.099662551795 AA    7.211167859608  -4.975685633077   0.188334927769 Bohr
[INPUT]  6 H      6.129426453180  -3.472989704849   0.022250138537 AA   11.582937297174  -6.562999375599   0.042046668068 Bohr
[INPUT]  7 H      7.029404741956  -1.009392347436  -0.424717899723 AA   13.283649781016  -1.907475088885  -0.802600510677 Bohr
[INPUT]  8 H      5.043352393929   0.740800082696  -0.528187350471 AA    9.530554774196   1.399909269351  -0.998129434850 Bohr
[INPUT]  9 C      2.355740746644  -0.272688711729  -0.141521446324 AA    4.451704831636  -0.515306982429  -0.267436774304 Bohr
[INPUT] 10 C      1.098444276007  -0.850925936670  -0.124866336462 AA    2.075758844749  -1.608016972596  -0.235963178092 Bohr
[INPUT] 11 S      2.225256181596   1.476582504237  -0.146355266717 AA    4.205124740212   2.790336533332  -0.276571370983 Bohr
[INPUT] 12 C      0.011684609922   0.083499821427  -0.143392766621 AA    0.022080712625   0.157791793947  -0.270973057158 Bohr
[INPUT] 13 H      0.957677522042  -1.934718271754  -0.142984546408 AA    1.809748232311  -3.656087661807  -0.270201632757 Bohr
[INPUT] 14 C      0.473265173107   1.414818907824  -0.169210142058 AA    0.894341561468   2.673620251643  -0.319760825988 Bohr
[INPUT] 15 C     -0.241667955170   2.673826287463  -0.192020573273 AA   -0.456686248355   5.052799387968  -0.362866293769 Bohr
[INPUT] 16 C      0.198562130907   3.889967159574  -0.711630141506 AA    0.375228046124   7.350972565147  -1.344786069431 Bohr
[INPUT] 17 S     -1.815554123758   2.884929238130   0.566436254835 AA   -3.430900058227   5.451726148816   1.070409388662 Bohr
[INPUT] 18 C     -0.720647863796   4.957919669503  -0.517390201315 AA   -1.361827094828   9.369110322955  -0.977725780018 Bohr
[INPUT] 19 H      1.153645545869   3.987454146755  -1.235075542025 AA    2.180074126518   7.535196271628  -2.333954517576 Bohr
[INPUT] 20 C     -1.861430597315   4.565087604373   0.152635028141 AA   -3.517594028811   8.626765306912   0.288438400202 Bohr
[INPUT] 21 H     -0.553176736082   5.979327947559  -0.868797524123 AA   -1.045352529677  11.299292229845  -1.641789378293 Bohr
[INPUT] 22 H     -2.733185652861   5.164121576755   0.420903026749 AA   -5.164972331497   9.758775454025   0.795391445557 Bohr
[INPUT] 23 C     -1.395102614108  -0.279361415062  -0.189985357437 AA   -2.636361856329  -0.527916564237  -0.359020293233 Bohr
[INPUT] 24 C     -1.904665420259  -1.521221435802   0.034155995175 AA   -3.599296003220  -2.874691888483   0.064545476393 Bohr
[INPUT] 25 H     -2.085763365568   0.535307927599  -0.434666165545 AA   -3.941521521575   1.011585375470  -0.821400008494 Bohr
[INPUT] 26 H     -1.217741552684  -2.334132765502   0.303231175629 AA   -2.301198025076  -4.410871665172   0.573023874369 Bohr
[INPUT] 27 C     -3.315776403614  -1.903170285593  -0.030741025625 AA   -6.265909293127  -3.596470608181  -0.058092119219 Bohr
[INPUT] 28 C     -3.676816529174  -3.244861312697   0.239921543832 AA   -6.948176250413  -6.131899193194   0.453386009226 Bohr
[INPUT] 29 C     -4.353026754594  -0.991587515403  -0.349534260900 AA   -8.226028379086  -1.873828832649  -0.660524024254 Bohr
[INPUT] 30 C     -5.011823851962  -3.661886137379   0.194496265915 AA   -9.470974464770  -6.919961898987   0.367544674829 Bohr
[INPUT] 31 H     -2.889118961742  -3.965079781445   0.489626836200 AA   -5.459643578981  -7.492914848981   0.925260623655 Bohr
[INPUT] 32 C     -5.685364130973  -1.408152389347  -0.393039474930 AA  -10.743781125965  -2.661022357517  -0.742736963760 Bohr
[INPUT] 33 H     -4.111821504203   0.054593848912  -0.563093641163 AA   -7.770216516041   0.103167422529  -1.064092764282 Bohr
[INPUT] 34 C     -6.024349877815  -2.745145241484  -0.122417788658 AA  -11.384371347628  -5.187572678558  -0.231336093338 Bohr
[INPUT] 35 H     -5.263105731217  -4.706440418581   0.407672316531 AA   -9.945828396630  -8.893883412701   0.770389026811 Bohr
[INPUT] 36 H     -6.469998829849  -0.685164008120  -0.641089425606 AA  -12.226525814671  -1.294772325756  -1.211483435750 Bohr
[INPUT] 37 H     -7.070318567773  -3.067121325985  -0.159246096555 AA  -13.360965706518  -5.796019296924  -0.300931508895 Bohr
[INPUT] ---------------- BASIS SET ---------------- 
[INPUT] l, kappa, [nprim/nctr], expnt,             c_1 c_2 ...
[INPUT] S
[INPUT] 0    0    [7    /1   ]  60700.928104      0.00054695944225
                                9102.6106854      0.0042297224557
                                2071.4166009      0.021747824159
                                586.02476821      0.085100053589
                                190.55395021      0.24799128459
                                67.63038426       0.46703640406
                                25.127306905      0.3643458755
[INPUT] 0    0    [3    /1   ]  112.5746301       0.02167004024
                                34.795554217      0.09360230176
                                6.5115556215      -0.26068001422
[INPUT] 0    0    [2    /1   ]  3.2399032261      1.2842089435
                                1.5477160881      0.66036416584
[INPUT] 0    0    [1    /1   ]  0.40541030112        1
[INPUT] 0    0    [1    /1   ]  0.14550651059        1
[INPUT] 1    0    [5    /1   ]  564.36716027      0.0024796796317
                                133.42624379      0.01967793025
                                42.468271189      0.089980008258
                                15.61652758       0.25705880575
                                6.1093988469      0.43515167292
[INPUT] 1    0    [1    /1   ]  2.4404160198         1
[INPUT] 1    0    [1    /1   ]  0.83882201296        1
[INPUT] 1    0    [1    /1   ]  0.312887469          1
[INPUT] 1    0    [1    /1   ]  0.10770109004        1
[INPUT] 2    0    [2    /1   ]  3.756              0.2
                                0.812                1
[INPUT] 2    0    [1    /1   ]  0.273                1
[INPUT] 3    0    [1    /1   ]  0.557                1
[INPUT] H
[INPUT] 0    0    [3    /1   ]  34.061341         0.0060251978
                                5.1235746         0.045021094
                                1.1646626         0.20189726
[INPUT] 0    0    [1    /1   ]  0.32723041           1
[INPUT] 0    0    [1    /1   ]  0.10307241           1
[INPUT] 1    0    [1    /1   ]  0.8                  1
[INPUT] C
[INPUT] 0    0    [6    /1   ]  13575.349682      0.00022245814352
                                2035.233368       0.0017232738252
                                463.22562359      0.0089255715314
                                131.20019598      0.035727984502
                                42.853015891      0.11076259931
                                15.584185766      0.24295627626
[INPUT] 0    0    [2    /1   ]  6.2067138508      0.41440263448
                                2.5764896527      0.23744968655
[INPUT] 0    0    [1    /1   ]  0.57696339419        1
[INPUT] 0    0    [1    /1   ]  0.22972831358        1
[INPUT] 0    0    [1    /1   ]  0.095164440028       1
[INPUT] 1    0    [4    /1   ]  34.697232244      0.0053333657805
                                7.9582622826      0.035864109092
                                2.3780826883      0.14215873329
                                0.81433208183     0.34270471845
[INPUT] 1    0    [1    /1   ]  0.28887547253        1
[INPUT] 1    0    [1    /1   ]  0.10056823671        1
[INPUT] 2    0    [1    /1   ]  1.097                1
[INPUT] 2    0    [1    /1   ]  0.318                1
[INPUT] 3    0    [1    /1   ]  0.761                1

nuclear repulsion = 2045.84560231184
number of shells = 315
number of NR pGTOs = 1221
number of NR cGTOs = 815
basis = def2-tzvp
ecp = {}
CPU time:         3.83
RKS
Density fitting turned on
Molecule built
Calculating SCF Energy...


******** <class 'pyscf.df.df_jk.density_fit.<locals>.DFHF'> ********
method = DFHF-RKS-RHF
initial guess = chkfile
damping factor = 0
level_shift factor = 0
DIIS = <class 'pyscf.scf.diis.CDIIS'>
diis_start_cycle = 1
diis_space = 8
SCF conv_tol = 1e-10
SCF conv_tol_grad = None
SCF max_cycles = 50
direct_scf = True
direct_scf_tol = 1e-13
chkfile to save SCF result = 37_Rpet_wb97x.chk
max_memory 50000 MB (current use 55 MB)
XC functionals = wb97x
small_rho_cutoff = 1e-07
radial grids: 
    Treutler-Ahlrichs [JCP 102, 346 (1995); DOI:10.1063/1.469408] (M4) radial grids
    
becke partition: Becke, JCP 88, 2547 (1988); DOI:10.1063/1.454033
pruning grids: <function nwchem_prune at 0x7f52dd7ec048>
grids dens level: 3
symmetrized grids: False
atomic radii adjust function: <function treutler_atomic_radii_adjust at 0x7f52dd7d8f28>
Set gradient conv threshold to 1e-05
atom C rad-grids = 75, ang-grids = [ 50  50  50  50  50  50  50  50  50  50  50  50  50  50  50  50  50  50
  50  50  50  50  50  86  86  86  86  86  86  86  86  86  86 266 266 266
 266 266 266 266 302 302 302 302 302 302 302 302 302 302 302 302 302 302
 302 302 302 302 302 302 266 266 266 266 266 266 266 266 266 266 266 266
 266 266 266]
atom S rad-grids = 80, ang-grids = [ 50  50  50  50  50  50  50  50  50  50  50  50  50  50  50  50  50  50
  50  50  50  50  50  50  86  86  86  86  86  86  86  86  86  86  86  86
  86 350 350 350 350 350 350 350 350 350 434 434 434 434 434 434 434 434
 434 434 434 434 434 434 434 434 434 434 350 350 350 350 350 350 350 350
 350 350 350 350 350 350 350 350]
atom H rad-grids = 50, ang-grids = [ 50  50  50  50  50  50  50  50  50  50  50  50  50  50  86  86  86  86
 266 266 266 266 302 302 302 302 302 302 302 302 302 302 302 302 302 266
 266 266 266 266 266 266 266 266 266 266 266 266 266 266]
tot grids = 475016
Drop grids 75152
    CPU time for setting up grids     84.42 sec, wall time      5.96 sec
nelec by numeric integration = 182.00004810953067
    CPU time for vxc    141.03 sec, wall time     22.08 sec
******** <class 'pyscf.df.df.DF'> ********
auxbasis = None
max_memory = 50000
_cderi_to_save = /tmp/job.15971889.hpc/tmp43b1kqz7
Default auxbasis def2-tzvp-jkfit is used for S def2-tzvp
Default auxbasis def2-tzvp-jkfit is used for H def2-tzvp
Default auxbasis def2-tzvp-jkfit is used for C def2-tzvp
num shells = 698, num cGTOs = 2136
size of aux basis 2136
int3c2e [1/1], AO [0:315], nrow = 332520
    CPU time for cholesky_eri    182.05 sec, wall time     29.05 sec
    CPU time for df vj and vk    543.28 sec, wall time     58.14 sec
Create RSH-DF object <pyscf.df.df.DF object at 0x7f52db9ad4e0> for omega=0.3
******** <class 'pyscf.df.df.DF'> ********
auxbasis = None
max_memory = 50000
_cderi_to_save = /tmp/job.15971889.hpc/tmp829z5jsw
Default auxbasis def2-tzvp-jkfit is used for S def2-tzvp
Default auxbasis def2-tzvp-jkfit is used for H def2-tzvp
Default auxbasis def2-tzvp-jkfit is used for C def2-tzvp
num shells = 698, num cGTOs = 2136
size of aux basis 1661
int3c2e [1/1], AO [0:315], nrow = 332520
    CPU time for cholesky_eri    222.01 sec, wall time     20.27 sec
    CPU time for df vj and vk    481.16 sec, wall time     37.96 sec
E1 = -6759.744916441683  Ecoul = 2939.3414390682074  Exc = -190.61955419064094
init E= -1965.17742925228
cond(S) = 1079585.182992245
    CPU time for initialize scf   1261.08 sec, wall time    130.84 sec
  HOMO = -0.27099474814272  LUMO = -0.00887853925411177
  mo_energy =
[-8.88762150e+01 -8.88748577e+01 -8.88742806e+01 -1.03134156e+01
 -1.03128894e+01 -1.03123105e+01 -1.03114305e+01 -1.02970468e+01
 -1.02967283e+01 -1.02870852e+01 -1.02788985e+01 -1.02747277e+01
 -1.02745858e+01 -1.02744186e+01 -1.02739808e+01 -1.02739403e+01
 -1.02732889e+01 -1.02725728e+01 -1.02674829e+01 -1.02674487e+01
 -1.02669725e+01 -1.02668241e+01 -1.02663894e+01 -8.06297749e+00
 -8.06175259e+00 -8.06129116e+00 -6.02442615e+00 -6.02321783e+00
 -6.02293233e+00 -6.02026737e+00 -6.01908411e+00 -6.01877402e+00
 -6.01755595e+00 -6.01626974e+00 -6.01542515e+00 -1.03771219e+00
 -1.02090483e+00 -1.00487392e+00 -9.93019323e-01 -9.39293606e-01
 -9.14159522e-01 -8.92003574e-01 -8.76983576e-01 -8.70102998e-01
 -8.69864320e-01 -8.62388493e-01 -8.38439739e-01 -8.16274271e-01
 -7.56416173e-01 -7.35850907e-01 -7.28405263e-01 -7.12223408e-01
 -6.85304312e-01 -6.80743899e-01 -6.67815003e-01 -6.50953673e-01
 -6.45109401e-01 -6.36768208e-01 -6.26117567e-01 -6.04531544e-01
 -5.78401742e-01 -5.74607345e-01 -5.55519705e-01 -5.45999929e-01
 -5.34713620e-01 -5.29799584e-01 -5.21344388e-01 -5.19044474e-01
 -5.15543137e-01 -5.11385281e-01 -5.09533547e-01 -5.02627752e-01
 -4.96948517e-01 -4.95153995e-01 -4.84084420e-01 -4.78824038e-01
 -4.68699061e-01 -4.60760225e-01 -4.49791487e-01 -4.46947923e-01
 -4.39729547e-01 -4.36390217e-01 -4.24320246e-01 -3.92563489e-01
 -3.64067445e-01 -3.54509597e-01 -3.53799496e-01 -3.49899486e-01
 -3.39796260e-01 -3.07295597e-01 -2.70994748e-01 -8.87853925e-03
  1.57240224e-02  5.27647424e-02  6.43581411e-02  8.83758338e-02
  9.12566424e-02  9.91972984e-02  1.00623120e-01  1.18159920e-01
  1.26857387e-01  1.32057687e-01  1.33218327e-01  1.34902765e-01
  1.40395815e-01  1.47866102e-01  1.49971274e-01  1.58921428e-01
  1.61446354e-01  1.67131612e-01  1.72042685e-01  1.73209602e-01
  1.79504810e-01  1.85006944e-01  1.89775684e-01  1.93826202e-01
  1.97627228e-01  2.05635933e-01  2.11853773e-01  2.14957623e-01
  2.19714680e-01  2.29928957e-01  2.38019964e-01  2.45257033e-01
  2.48830666e-01  2.54671138e-01  2.63556644e-01  2.65494229e-01
  2.72040892e-01  2.77592403e-01  2.80199055e-01  2.87937327e-01
  2.90969150e-01  2.92841475e-01  2.95934047e-01  2.99438174e-01
  3.01202136e-01  3.02889965e-01  3.06097551e-01  3.09692684e-01
  3.15657526e-01  3.16525992e-01  3.20827306e-01  3.23047343e-01
  3.23630178e-01  3.29391755e-01  3.32524753e-01  3.38338035e-01
  3.47002073e-01  3.49189575e-01  3.53184975e-01  3.55480031e-01
  3.59889047e-01  3.63345199e-01  3.71111921e-01  3.72767058e-01
  3.80060724e-01  3.84754674e-01  3.91522514e-01  3.92704996e-01
  3.97681653e-01  3.99968583e-01  4.02773361e-01  4.11961823e-01
  4.13128833e-01  4.16297029e-01  4.20200695e-01  4.24986759e-01
  4.25498399e-01  4.29342086e-01  4.30991612e-01  4.40652154e-01
  4.47939278e-01  4.50172255e-01  4.51923733e-01  4.58695564e-01
  4.61444303e-01  4.68238956e-01  4.70260603e-01  4.73213054e-01
  4.73641664e-01  4.78002580e-01  4.84622871e-01  4.87214325e-01
  4.88996565e-01  4.90355776e-01  4.92819332e-01  4.96758966e-01
  5.00235570e-01  5.03848163e-01  5.04587107e-01  5.07412282e-01
  5.11341145e-01  5.20644778e-01  5.26507867e-01  5.28415006e-01
  5.31904888e-01  5.34164232e-01  5.40194920e-01  5.40594581e-01
  5.51658451e-01  5.57994129e-01  5.63245140e-01  5.67084943e-01
  5.76024329e-01  5.80266211e-01  5.83674624e-01  5.90262485e-01
  5.95247416e-01  5.98858457e-01  6.00371267e-01  6.02611274e-01
  6.15201989e-01  6.20279187e-01  6.23274780e-01  6.37428758e-01
  6.39956026e-01  6.48259679e-01  6.54207431e-01  6.60367086e-01
  6.72600840e-01  6.77290139e-01  6.80795619e-01  6.86905463e-01
  6.88379657e-01  6.96239074e-01  7.02748079e-01  7.10554559e-01
  7.18625269e-01  7.23407726e-01  7.30113681e-01  7.31421788e-01
  7.40368365e-01  7.41917869e-01  7.49643541e-01  7.52819506e-01
  7.56934487e-01  7.62386797e-01  7.66941266e-01  7.70111424e-01
  7.74736419e-01  7.77743021e-01  7.83249618e-01  7.87741384e-01
  7.90662704e-01  7.93101508e-01  7.98836706e-01  8.07172371e-01
  8.12022486e-01  8.16772553e-01  8.24628533e-01  8.30160187e-01
  8.32250696e-01  8.33857504e-01  8.38342203e-01  8.45592418e-01
  8.52001875e-01  8.55222450e-01  8.58916375e-01  8.73677519e-01
  8.83763611e-01  8.88398267e-01  8.94005897e-01  9.01332842e-01
  9.05355166e-01  9.05614984e-01  9.14329316e-01  9.18334756e-01
  9.28789094e-01  9.32865137e-01  9.41590287e-01  9.52237771e-01
  9.58700284e-01  9.66942561e-01  9.74384642e-01  9.76292059e-01
  9.85315312e-01  9.95790824e-01  9.99259565e-01  1.00486904e+00
  1.01540014e+00  1.02542076e+00  1.02800892e+00  1.03352089e+00
  1.04704631e+00  1.05253851e+00  1.05651614e+00  1.06550950e+00
  1.07258691e+00  1.07582218e+00  1.08128370e+00  1.08571814e+00
  1.09211907e+00  1.09824267e+00  1.10758331e+00  1.11249696e+00
  1.12587907e+00  1.12952316e+00  1.13258181e+00  1.14141010e+00
  1.14418840e+00  1.15586935e+00  1.15852599e+00  1.17091532e+00
  1.17385132e+00  1.17875633e+00  1.18521506e+00  1.19216779e+00
  1.19529656e+00  1.20791249e+00  1.21387599e+00  1.22346421e+00
  1.23165142e+00  1.24086150e+00  1.25269025e+00  1.26367244e+00
  1.27148608e+00  1.28023419e+00  1.29553140e+00  1.29771186e+00
  1.30840166e+00  1.31226161e+00  1.31642775e+00  1.32616585e+00
  1.32864073e+00  1.33482551e+00  1.34438056e+00  1.36063116e+00
  1.36433640e+00  1.36944620e+00  1.37210904e+00  1.37745980e+00
  1.38596728e+00  1.39106275e+00  1.39575433e+00  1.40290016e+00
  1.41078853e+00  1.41480346e+00  1.42117375e+00  1.42660147e+00
  1.43771382e+00  1.44287293e+00  1.45171706e+00  1.45724991e+00
  1.47098423e+00  1.47521614e+00  1.48170646e+00  1.49099611e+00
  1.50005011e+00  1.50753951e+00  1.51920816e+00  1.52340153e+00
  1.53311799e+00  1.54290169e+00  1.54560736e+00  1.55220627e+00
  1.55375995e+00  1.56185733e+00  1.57563188e+00  1.57898224e+00
  1.58805533e+00  1.58865452e+00  1.60182862e+00  1.60601346e+00
  1.60763150e+00  1.61308863e+00  1.61412251e+00  1.61755882e+00
  1.62124419e+00  1.62786254e+00  1.63480453e+00  1.64373838e+00
  1.64413452e+00  1.65091840e+00  1.65344025e+00  1.66585814e+00
  1.66857007e+00  1.67759326e+00  1.67922789e+00  1.68341538e+00
  1.68857694e+00  1.69507302e+00  1.70103571e+00  1.70585476e+00
  1.71018622e+00  1.71306338e+00  1.72116876e+00  1.72404214e+00
  1.73184641e+00  1.73600975e+00  1.74444166e+00  1.74636307e+00
  1.75850092e+00  1.76170873e+00  1.77009841e+00  1.77721341e+00
  1.78922603e+00  1.79460728e+00  1.79932357e+00  1.80264947e+00
  1.80605108e+00  1.81909605e+00  1.82339738e+00  1.83246819e+00
  1.83610539e+00  1.85784896e+00  1.86782512e+00  1.87520298e+00
  1.88396976e+00  1.89100583e+00  1.89220678e+00  1.90110559e+00
  1.91583330e+00  1.91936632e+00  1.92702416e+00  1.93596647e+00
  1.94262214e+00  1.94663843e+00  1.95149128e+00  1.95815299e+00
  1.96306448e+00  1.96685321e+00  1.96866159e+00  1.97544311e+00
  1.98439127e+00  1.98644875e+00  1.99042889e+00  1.99339362e+00
  2.00636447e+00  2.01354819e+00  2.01612680e+00  2.02923341e+00
  2.03842742e+00  2.04238524e+00  2.05431284e+00  2.05918359e+00
  2.07224748e+00  2.07549313e+00  2.08129513e+00  2.08578969e+00
  2.09513720e+00  2.10237452e+00  2.10826901e+00  2.11152781e+00
  2.12137970e+00  2.13238274e+00  2.14418620e+00  2.15334681e+00
  2.16249257e+00  2.16981980e+00  2.17187981e+00  2.18141181e+00
  2.19618464e+00  2.20407884e+00  2.20989577e+00  2.21799309e+00
  2.22555534e+00  2.23318909e+00  2.24304527e+00  2.24826444e+00
  2.25138566e+00  2.25660403e+00  2.26103314e+00  2.27882277e+00
  2.28154471e+00  2.28903000e+00  2.29468743e+00  2.29816431e+00
  2.31642579e+00  2.31949149e+00  2.33390198e+00  2.34150784e+00
  2.34833888e+00  2.35241090e+00  2.36070976e+00  2.37266056e+00
  2.37961474e+00  2.38038289e+00  2.40054455e+00  2.40976627e+00
  2.41139698e+00  2.45157500e+00  2.46767157e+00  2.47663329e+00
  2.51299881e+00  2.54171296e+00  2.56213635e+00  2.56684189e+00
  2.57012252e+00  2.57355247e+00  2.58207216e+00  2.58729676e+00
  2.58861620e+00  2.60653324e+00  2.60847966e+00  2.61847476e+00
  2.63190373e+00  2.63573216e+00  2.64497746e+00  2.64916846e+00
  2.65403698e+00  2.65932996e+00  2.66896708e+00  2.67542798e+00
  2.68623029e+00  2.69110490e+00  2.70335650e+00  2.70773933e+00
  2.71083198e+00  2.71557665e+00  2.72664151e+00  2.73273821e+00
  2.73944791e+00  2.74442775e+00  2.75012645e+00  2.75488110e+00
  2.75948645e+00  2.76269147e+00  2.77247580e+00  2.77439579e+00
  2.77859015e+00  2.78852462e+00  2.79809701e+00  2.80589251e+00
  2.80764495e+00  2.81673863e+00  2.82113264e+00  2.82890624e+00
  2.83229569e+00  2.83410315e+00  2.85528343e+00  2.85677543e+00
  2.86055680e+00  2.86176102e+00  2.86624502e+00  2.87226033e+00
  2.88181400e+00  2.88338999e+00  2.89406782e+00  2.90423762e+00
  2.90876230e+00  2.91771644e+00  2.92132734e+00  2.92395290e+00
  2.92742104e+00  2.92766175e+00  2.93705339e+00  2.94140229e+00
  2.94369468e+00  2.94759023e+00  2.96068617e+00  2.96303520e+00
  2.97406525e+00  2.98022209e+00  2.98805605e+00  2.99786348e+00
  3.00630432e+00  3.01668462e+00  3.02472210e+00  3.02978071e+00
  3.04115333e+00  3.04762571e+00  3.05334824e+00  3.06067146e+00
  3.07122053e+00  3.07379802e+00  3.08965679e+00  3.09231389e+00
  3.10950597e+00  3.12133879e+00  3.13052959e+00  3.13873379e+00
  3.14029637e+00  3.15221900e+00  3.15442312e+00  3.15824062e+00
  3.16655029e+00  3.17062809e+00  3.17700318e+00  3.18264785e+00
  3.18986297e+00  3.19651108e+00  3.20285238e+00  3.20923951e+00
  3.21198644e+00  3.21245047e+00  3.21823742e+00  3.22162524e+00
  3.22727831e+00  3.23068725e+00  3.23559085e+00  3.24170841e+00
  3.24340374e+00  3.24931895e+00  3.25380814e+00  3.25931131e+00
  3.26905136e+00  3.27585073e+00  3.28362775e+00  3.29247347e+00
  3.29828885e+00  3.30694367e+00  3.30741688e+00  3.31616066e+00
  3.33115639e+00  3.33702179e+00  3.34266154e+00  3.34936079e+00
  3.36078988e+00  3.36791933e+00  3.37221057e+00  3.37425559e+00
  3.37910513e+00  3.38766160e+00  3.39312129e+00  3.39603036e+00
  3.40235361e+00  3.40412473e+00  3.41049689e+00  3.41531444e+00
  3.41948314e+00  3.42451965e+00  3.43048367e+00  3.43814636e+00
  3.44196734e+00  3.44629054e+00  3.45080990e+00  3.45913850e+00
  3.46857083e+00  3.47291399e+00  3.47513238e+00  3.48145670e+00
  3.48865713e+00  3.49355426e+00  3.49923223e+00  3.51091135e+00
  3.51586017e+00  3.52461546e+00  3.53561467e+00  3.54167522e+00
  3.54724273e+00  3.54897848e+00  3.55389947e+00  3.56034960e+00
  3.56684104e+00  3.57557394e+00  3.57857958e+00  3.58672654e+00
  3.59749985e+00  3.60206291e+00  3.61086559e+00  3.61454553e+00
  3.62305096e+00  3.63916559e+00  3.64490804e+00  3.65031784e+00
  3.66234249e+00  3.67341909e+00  3.67861538e+00  3.67931500e+00
  3.68661804e+00  3.69253477e+00  3.70039275e+00  3.70435427e+00
  3.70952400e+00  3.71842788e+00  3.73369396e+00  3.73501631e+00
  3.74372294e+00  3.75519205e+00  3.76055484e+00  3.78138292e+00
  3.78618429e+00  3.78859333e+00  3.79511702e+00  3.80937124e+00
  3.81874682e+00  3.83361264e+00  3.83631945e+00  3.84954689e+00
  3.86742094e+00  3.87899817e+00  3.89308341e+00  3.90390781e+00
  3.92638665e+00  3.94174979e+00  3.96211875e+00  3.97792808e+00
  3.97866273e+00  3.99445302e+00  4.01244209e+00  4.01859442e+00
  4.02560274e+00  4.03571253e+00  4.03840507e+00  4.04691128e+00
  4.06570803e+00  4.09650322e+00  4.10263653e+00  4.12324578e+00
  4.12811949e+00  4.14865314e+00  4.15230511e+00  4.18311334e+00
  4.19774340e+00  4.20827110e+00  4.22123232e+00  4.23175651e+00
  4.23876350e+00  4.25946566e+00  4.26392679e+00  4.28236914e+00
  4.29085032e+00  4.29533264e+00  4.31600893e+00  4.32265626e+00
  4.32418915e+00  4.33060752e+00  4.33110333e+00  4.33318381e+00
  4.34967729e+00  4.35688544e+00  4.36317666e+00  4.37608334e+00
  4.38166813e+00  4.40116678e+00  4.41327990e+00  4.43668033e+00
  4.44825192e+00  4.45935786e+00  4.47058732e+00  4.48507782e+00
  4.50052314e+00  4.51691888e+00  4.53958863e+00  4.54499861e+00
  4.56362359e+00  4.56701937e+00  4.60832876e+00  4.63733425e+00
  4.66166930e+00  4.68689117e+00  4.72391272e+00  4.74333166e+00
  4.74865080e+00  4.77122763e+00  4.77936989e+00  4.79250237e+00
  4.81180084e+00  4.81798905e+00  4.83091030e+00  4.83338691e+00
  4.85445803e+00  4.87189811e+00  4.91519082e+00  4.92488218e+00
  4.94375496e+00  4.96165774e+00  4.96239895e+00  4.98913854e+00
  5.02442081e+00  5.03728990e+00  5.04463939e+00  5.08322051e+00
  5.09995342e+00  5.12127029e+00  5.14284129e+00  5.16744459e+00
  5.19201481e+00  5.24933264e+00  5.28686793e+00  5.30519243e+00
  5.37027136e+00  5.37642108e+00  5.39704919e+00  5.47284483e+00
  5.51563276e+00  5.57679058e+00  5.58242302e+00  5.61159460e+00
  5.74020122e+00  5.75214361e+00  5.86670645e+00  8.97151665e+00
  9.00221265e+00  9.01392707e+00  9.51551316e+00  9.52156022e+00
  9.54569861e+00  9.58754629e+00  9.60653319e+00  9.62971683e+00
  2.01722280e+01  2.02299329e+01  2.03374594e+01  2.20370990e+01
  2.21795807e+01  2.22088350e+01  2.24844928e+01  2.25292596e+01
  2.25471698e+01  2.25872746e+01  2.26238932e+01  2.26700036e+01
  2.26775242e+01  2.27151230e+01  2.27688857e+01  2.28153399e+01
  2.28305330e+01  2.28720165e+01  2.29089553e+01  2.29384204e+01
  2.30640594e+01  2.32488474e+01  2.33666811e+01]
nelec by numeric integration = 182.00004810952282
    CPU time for vxc     98.87 sec, wall time      6.89 sec
    CPU time for df vj and vk    357.21 sec, wall time     29.89 sec
    CPU time for df vj and vk    256.01 sec, wall time     16.60 sec
E1 = -6759.744983707041  Ecoul = 2939.341506905993  Exc = -190.61955476306701
cycle= 1 E= -1965.17742925227  delta_E= 1.82e-12  |g|= 7.71e-06  |ddm|= 1.64e-05
    CPU time for cycle= 1    719.60 sec, wall time     54.39 sec
  HOMO = -0.270993860553635  LUMO = -0.00887767159577576
  mo_energy =
[-8.88762149e+01 -8.88748579e+01 -8.88742809e+01 -1.03134162e+01
 -1.03128834e+01 -1.03123045e+01 -1.03114301e+01 -1.02970485e+01
 -1.02967320e+01 -1.02870836e+01 -1.02788968e+01 -1.02747281e+01
 -1.02745853e+01 -1.02744179e+01 -1.02739805e+01 -1.02739405e+01
 -1.02732878e+01 -1.02725718e+01 -1.02674831e+01 -1.02674484e+01
 -1.02669725e+01 -1.02668238e+01 -1.02663902e+01 -8.06297726e+00
 -8.06175285e+00 -8.06129110e+00 -6.02442594e+00 -6.02321809e+00
 -6.02293230e+00 -6.02026717e+00 -6.01908437e+00 -6.01877400e+00
 -6.01755573e+00 -6.01627000e+00 -6.01542512e+00 -1.03771104e+00
 -1.02090451e+00 -1.00487349e+00 -9.93019027e-01 -9.39292990e-01
 -9.14158503e-01 -8.92002866e-01 -8.76983498e-01 -8.70103095e-01
 -8.69863888e-01 -8.62388236e-01 -8.38439211e-01 -8.16273669e-01
 -7.56415664e-01 -7.35850149e-01 -7.28405118e-01 -7.12222777e-01
 -6.85304297e-01 -6.80743629e-01 -6.67814408e-01 -6.50953450e-01
 -6.45108787e-01 -6.36768105e-01 -6.26117404e-01 -6.04531202e-01
 -5.78401360e-01 -5.74607148e-01 -5.55519345e-01 -5.45999481e-01
 -5.34712751e-01 -5.29799505e-01 -5.21344126e-01 -5.19044101e-01
 -5.15542835e-01 -5.11384838e-01 -5.09533587e-01 -5.02627332e-01
 -4.96947915e-01 -4.95153611e-01 -4.84084070e-01 -4.78823493e-01
 -4.68698725e-01 -4.60760130e-01 -4.49791292e-01 -4.46947421e-01
 -4.39729158e-01 -4.36389854e-01 -4.24319806e-01 -3.92562775e-01
 -3.64066991e-01 -3.54509205e-01 -3.53799597e-01 -3.49899415e-01
 -3.39795898e-01 -3.07295221e-01 -2.70993861e-01 -8.87767160e-03
  1.57242779e-02  5.27652395e-02  6.43582512e-02  8.83761541e-02
  9.12572705e-02  9.91975456e-02  1.00623153e-01  1.18160316e-01
  1.26857676e-01  1.32057894e-01  1.33218505e-01  1.34903024e-01
  1.40396007e-01  1.47866350e-01  1.49971204e-01  1.58921779e-01
  1.61446377e-01  1.67131629e-01  1.72042733e-01  1.73209796e-01
  1.79505110e-01  1.85007086e-01  1.89775686e-01  1.93826598e-01
  1.97627247e-01  2.05636099e-01  2.11854001e-01  2.14957779e-01
  2.19715008e-01  2.29929288e-01  2.38020339e-01  2.45257322e-01
  2.48830982e-01  2.54671335e-01  2.63557008e-01  2.65494581e-01
  2.72041058e-01  2.77592666e-01  2.80199169e-01  2.87937524e-01
  2.90969327e-01  2.92841642e-01  2.95934164e-01  2.99438438e-01
  3.01202337e-01  3.02890050e-01  3.06097749e-01  3.09692708e-01
  3.15657710e-01  3.16526483e-01  3.20827547e-01  3.23047560e-01
  3.23630412e-01  3.29391947e-01  3.32525005e-01  3.38338214e-01
  3.47002432e-01  3.49189918e-01  3.53185278e-01  3.55480231e-01
  3.59889363e-01  3.63345554e-01  3.71112408e-01  3.72767575e-01
  3.80061279e-01  3.84755035e-01  3.91522843e-01  3.92705240e-01
  3.97681844e-01  3.99968909e-01  4.02773664e-01  4.11962060e-01
  4.13129026e-01  4.16297245e-01  4.20201058e-01  4.24986976e-01
  4.25498618e-01  4.29342254e-01  4.30991812e-01  4.40652315e-01
  4.47939479e-01  4.50172610e-01  4.51924121e-01  4.58695900e-01
  4.61444586e-01  4.68239184e-01  4.70260866e-01  4.73213316e-01
  4.73641959e-01  4.78002855e-01  4.84623048e-01  4.87214484e-01
  4.88996648e-01  4.90356005e-01  4.92819301e-01  4.96759351e-01
  5.00235726e-01  5.03848272e-01  5.04587143e-01  5.07412556e-01
  5.11341212e-01  5.20644964e-01  5.26508049e-01  5.28415222e-01
  5.31905194e-01  5.34164443e-01  5.40195417e-01  5.40594883e-01
  5.51658662e-01  5.57994460e-01  5.63245431e-01  5.67085013e-01
  5.76024451e-01  5.80266426e-01  5.83674921e-01  5.90262648e-01
  5.95247699e-01  5.98858725e-01  6.00371537e-01  6.02611674e-01
  6.15202309e-01  6.20279384e-01  6.23275027e-01  6.37429030e-01
  6.39956351e-01  6.48260036e-01  6.54207875e-01  6.60367560e-01
  6.72601493e-01  6.77290442e-01  6.80796123e-01  6.86905682e-01
  6.88380132e-01  6.96239481e-01  7.02748541e-01  7.10554909e-01
  7.18625563e-01  7.23408252e-01  7.30114072e-01  7.31422281e-01
  7.40368592e-01  7.41918274e-01  7.49643803e-01  7.52819769e-01
  7.56934796e-01  7.62387188e-01  7.66941583e-01  7.70111684e-01
  7.74736733e-01  7.77743281e-01  7.83250042e-01  7.87741716e-01
  7.90663053e-01  7.93101851e-01  7.98837076e-01  8.07172739e-01
  8.12022891e-01  8.16772970e-01  8.24628805e-01  8.30160553e-01
  8.32251136e-01  8.33857913e-01  8.38342739e-01  8.45592539e-01
  8.52002140e-01  8.55222890e-01  8.58916657e-01  8.73677917e-01
  8.83763932e-01  8.88398766e-01  8.94006251e-01  9.01333202e-01
  9.05355639e-01  9.05615381e-01  9.14329383e-01  9.18335062e-01
  9.28789457e-01  9.32865572e-01  9.41590654e-01  9.52238378e-01
  9.58700534e-01  9.66943105e-01  9.74385009e-01  9.76292557e-01
  9.85315865e-01  9.95791048e-01  9.99260051e-01  1.00486922e+00
  1.01540042e+00  1.02542110e+00  1.02800917e+00  1.03352115e+00
  1.04704666e+00  1.05253859e+00  1.05651639e+00  1.06550963e+00
  1.07258749e+00  1.07582238e+00  1.08128425e+00  1.08571847e+00
  1.09211920e+00  1.09824303e+00  1.10758339e+00  1.11249704e+00
  1.12587922e+00  1.12952353e+00  1.13258196e+00  1.14141044e+00
  1.14418866e+00  1.15586972e+00  1.15852631e+00  1.17091520e+00
  1.17385148e+00  1.17875662e+00  1.18521500e+00  1.19216795e+00
  1.19529661e+00  1.20791306e+00  1.21387631e+00  1.22346474e+00
  1.23165205e+00  1.24086192e+00  1.25269067e+00  1.26367285e+00
  1.27148655e+00  1.28023446e+00  1.29553208e+00  1.29771222e+00
  1.30840208e+00  1.31226195e+00  1.31642785e+00  1.32616615e+00
  1.32864090e+00  1.33482594e+00  1.34438093e+00  1.36063155e+00
  1.36433653e+00  1.36944640e+00  1.37210926e+00  1.37746002e+00
  1.38596742e+00  1.39106318e+00  1.39575479e+00  1.40290029e+00
  1.41078884e+00  1.41480368e+00  1.42117422e+00  1.42660195e+00
  1.43771388e+00  1.44287331e+00  1.45171733e+00  1.45725014e+00
  1.47098458e+00  1.47521690e+00  1.48170697e+00  1.49099661e+00
  1.50005046e+00  1.50754004e+00  1.51920881e+00  1.52340204e+00
  1.53311838e+00  1.54290185e+00  1.54560749e+00  1.55220652e+00
  1.55376028e+00  1.56185754e+00  1.57563199e+00  1.57898229e+00
  1.58805553e+00  1.58865505e+00  1.60182901e+00  1.60601370e+00
  1.60763152e+00  1.61308872e+00  1.61412253e+00  1.61755868e+00
  1.62124428e+00  1.62786269e+00  1.63480476e+00  1.64373859e+00
  1.64413492e+00  1.65091862e+00  1.65344045e+00  1.66585844e+00
  1.66857050e+00  1.67759379e+00  1.67922821e+00  1.68341553e+00
  1.68857709e+00  1.69507323e+00  1.70103603e+00  1.70585495e+00
  1.71018652e+00  1.71306358e+00  1.72116947e+00  1.72404256e+00
  1.73184683e+00  1.73601020e+00  1.74444203e+00  1.74636344e+00
  1.75850079e+00  1.76170930e+00  1.77009877e+00  1.77721383e+00
  1.78922634e+00  1.79460758e+00  1.79932386e+00  1.80264956e+00
  1.80605133e+00  1.81909644e+00  1.82339800e+00  1.83246862e+00
  1.83610551e+00  1.85784917e+00  1.86782541e+00  1.87520331e+00
  1.88397022e+00  1.89100649e+00  1.89220702e+00  1.90110601e+00
  1.91583375e+00  1.91936642e+00  1.92702461e+00  1.93596684e+00
  1.94262239e+00  1.94663906e+00  1.95149160e+00  1.95815333e+00
  1.96306498e+00  1.96685356e+00  1.96866208e+00  1.97544352e+00
  1.98439123e+00  1.98644915e+00  1.99042954e+00  1.99339405e+00
  2.00636493e+00  2.01354859e+00  2.01612760e+00  2.02923388e+00
  2.03842782e+00  2.04238538e+00  2.05431308e+00  2.05918389e+00
  2.07224769e+00  2.07549321e+00  2.08129528e+00  2.08579012e+00
  2.09513684e+00  2.10237479e+00  2.10826939e+00  2.11152778e+00
  2.12138001e+00  2.13238322e+00  2.14418669e+00  2.15334737e+00
  2.16249336e+00  2.16982030e+00  2.17188036e+00  2.18141222e+00
  2.19618556e+00  2.20407882e+00  2.20989610e+00  2.21799382e+00
  2.22555582e+00  2.23318936e+00  2.24304551e+00  2.24826491e+00
  2.25138577e+00  2.25660471e+00  2.26103372e+00  2.27882397e+00
  2.28154521e+00  2.28903046e+00  2.29468822e+00  2.29816469e+00
  2.31642612e+00  2.31949221e+00  2.33390233e+00  2.34150813e+00
  2.34833918e+00  2.35241093e+00  2.36070935e+00  2.37266082e+00
  2.37961543e+00  2.38038348e+00  2.40054519e+00  2.40976662e+00
  2.41139704e+00  2.45157553e+00  2.46767176e+00  2.47663347e+00
  2.51299977e+00  2.54171374e+00  2.56213665e+00  2.56684241e+00
  2.57012261e+00  2.57355231e+00  2.58207215e+00  2.58729689e+00
  2.58861631e+00  2.60653349e+00  2.60848008e+00  2.61847522e+00
  2.63190392e+00  2.63573266e+00  2.64497773e+00  2.64916828e+00
  2.65403706e+00  2.65933007e+00  2.66896758e+00  2.67542846e+00
  2.68623056e+00  2.69110530e+00  2.70335705e+00  2.70773956e+00
  2.71083214e+00  2.71557708e+00  2.72664174e+00  2.73273810e+00
  2.73944809e+00  2.74442781e+00  2.75012665e+00  2.75488143e+00
  2.75948659e+00  2.76269181e+00  2.77247625e+00  2.77439583e+00
  2.77859053e+00  2.78852492e+00  2.79809730e+00  2.80589283e+00
  2.80764530e+00  2.81673894e+00  2.82113312e+00  2.82890655e+00
  2.83229627e+00  2.83410332e+00  2.85528381e+00  2.85677549e+00
  2.86055700e+00  2.86176112e+00  2.86624541e+00  2.87226066e+00
  2.88181415e+00  2.88339034e+00  2.89406833e+00  2.90423790e+00
  2.90876249e+00  2.91771653e+00  2.92132791e+00  2.92395321e+00
  2.92742129e+00  2.92766176e+00  2.93705350e+00  2.94140233e+00
  2.94369481e+00  2.94759047e+00  2.96068669e+00  2.96303577e+00
  2.97406585e+00  2.98022268e+00  2.98805673e+00  2.99786400e+00
  3.00630467e+00  3.01668535e+00  3.02472264e+00  3.02978135e+00
  3.04115395e+00  3.04762617e+00  3.05334893e+00  3.06067184e+00
  3.07122106e+00  3.07379834e+00  3.08965743e+00  3.09231429e+00
  3.10950660e+00  3.12134000e+00  3.13052984e+00  3.13873412e+00
  3.14029642e+00  3.15221935e+00  3.15442344e+00  3.15824104e+00
  3.16655069e+00  3.17062835e+00  3.17700366e+00  3.18264868e+00
  3.18986334e+00  3.19651104e+00  3.20285270e+00  3.20923973e+00
  3.21198657e+00  3.21245095e+00  3.21823764e+00  3.22162518e+00
  3.22727847e+00  3.23068756e+00  3.23559095e+00  3.24170857e+00
  3.24340368e+00  3.24931942e+00  3.25380861e+00  3.25931163e+00
  3.26905159e+00  3.27585108e+00  3.28362810e+00  3.29247388e+00
  3.29828955e+00  3.30694417e+00  3.30741751e+00  3.31616110e+00
  3.33115726e+00  3.33702257e+00  3.34266210e+00  3.34936112e+00
  3.36079060e+00  3.36791987e+00  3.37221102e+00  3.37425565e+00
  3.37910531e+00  3.38766230e+00  3.39312160e+00  3.39603054e+00
  3.40235401e+00  3.40412524e+00  3.41049719e+00  3.41531464e+00
  3.41948352e+00  3.42452049e+00  3.43048394e+00  3.43814717e+00
  3.44196788e+00  3.44629112e+00  3.45081057e+00  3.45913931e+00
  3.46857128e+00  3.47291426e+00  3.47513299e+00  3.48145716e+00
  3.48865754e+00  3.49355446e+00  3.49923269e+00  3.51091162e+00
  3.51586054e+00  3.52461591e+00  3.53561446e+00  3.54167512e+00
  3.54724283e+00  3.54897917e+00  3.55389961e+00  3.56034977e+00
  3.56684136e+00  3.57557439e+00  3.57858011e+00  3.58672673e+00
  3.59750014e+00  3.60206333e+00  3.61086570e+00  3.61454611e+00
  3.62305159e+00  3.63916600e+00  3.64490848e+00  3.65031842e+00
  3.66234300e+00  3.67341997e+00  3.67861621e+00  3.67931549e+00
  3.68661841e+00  3.69253542e+00  3.70039341e+00  3.70435451e+00
  3.70952478e+00  3.71842845e+00  3.73369464e+00  3.73501697e+00
  3.74372361e+00  3.75519227e+00  3.76055529e+00  3.78138321e+00
  3.78618504e+00  3.78859366e+00  3.79511752e+00  3.80937163e+00
  3.81874777e+00  3.83361356e+00  3.83631999e+00  3.84954748e+00
  3.86742158e+00  3.87899878e+00  3.89308379e+00  3.90390833e+00
  3.92638750e+00  3.94175039e+00  3.96211935e+00  3.97792887e+00
  3.97866360e+00  3.99445367e+00  4.01244315e+00  4.01859474e+00
  4.02560289e+00  4.03571269e+00  4.03840520e+00  4.04691191e+00
  4.06570807e+00  4.09650394e+00  4.10263748e+00  4.12324611e+00
  4.12811998e+00  4.14865325e+00  4.15230570e+00  4.18311434e+00
  4.19774396e+00  4.20827183e+00  4.22123272e+00  4.23175707e+00
  4.23876409e+00  4.25946604e+00  4.26392717e+00  4.28236948e+00
  4.29085067e+00  4.29533263e+00  4.31600898e+00  4.32265631e+00
  4.32418965e+00  4.33060775e+00  4.33110354e+00  4.33318384e+00
  4.34967761e+00  4.35688563e+00  4.36317745e+00  4.37608407e+00
  4.38166827e+00  4.40116693e+00  4.41328068e+00  4.43668064e+00
  4.44825247e+00  4.45935806e+00  4.47058804e+00  4.48507792e+00
  4.50052318e+00  4.51691961e+00  4.53958923e+00  4.54499912e+00
  4.56362403e+00  4.56702062e+00  4.60832966e+00  4.63733496e+00
  4.66167055e+00  4.68689220e+00  4.72391318e+00  4.74333314e+00
  4.74865112e+00  4.77122802e+00  4.77937051e+00  4.79250260e+00
  4.81180104e+00  4.81798960e+00  4.83091021e+00  4.83338707e+00
  4.85445842e+00  4.87189957e+00  4.91519134e+00  4.92488259e+00
  4.94375531e+00  4.96165810e+00  4.96239930e+00  4.98913869e+00
  5.02442108e+00  5.03729014e+00  5.04463999e+00  5.08322093e+00
  5.09995388e+00  5.12127054e+00  5.14284181e+00  5.16744510e+00
  5.19201501e+00  5.24933336e+00  5.28686867e+00  5.30519299e+00
  5.37027222e+00  5.37642164e+00  5.39705038e+00  5.47284568e+00
  5.51563325e+00  5.57679134e+00  5.58242401e+00  5.61159518e+00
  5.74020265e+00  5.75214498e+00  5.86670717e+00  8.97151645e+00
  9.00221278e+00  9.01392735e+00  9.51551296e+00  9.52156047e+00
  9.54569871e+00  9.58754627e+00  9.60653336e+00  9.62971701e+00
  2.01722281e+01  2.02299329e+01  2.03374596e+01  2.20370986e+01
  2.21795795e+01  2.22088345e+01  2.24844941e+01  2.25292605e+01
  2.25471696e+01  2.25872745e+01  2.26238929e+01  2.26700034e+01
  2.26775241e+01  2.27151237e+01  2.27688863e+01  2.28153411e+01
  2.28305334e+01  2.28720178e+01  2.29089583e+01  2.29384218e+01
  2.30640596e+01  2.32488484e+01  2.33666839e+01]
nelec by numeric integration = 182.00004810950048
    CPU time for vxc    103.95 sec, wall time      7.23 sec
    CPU time for df vj and vk    349.19 sec, wall time     27.09 sec
    CPU time for df vj and vk    268.20 sec, wall time     17.50 sec
E1 = -6759.744900103238  Ecoul = 2939.3414229209047  Exc = -190.61955438176867
Extra cycle  E= -1965.17742925226  delta_E= 1.27e-11  |g|= 1.05e-05  |ddm|= 2.34e-05
    CPU time for scf_cycle   2707.73 sec, wall time    237.94 sec
    CPU time for SCF   2707.73 sec, wall time    237.94 sec
converged SCF energy = -1965.17742925226
SCF Done after  237.9388 seconds
after SCF memory used: 10548.4609375 MB
Converting <class 'pyscf.df.df_jk.density_fit.<locals>.DFHF'> to RHF
Converting <class 'pyscf.df.df_jk.density_fit.<locals>.DFHF'> to RHF
a_x = 0.56
beta = 8.0
alpha = 4.58
hdiag (65884,)
n_occ =  91
n_vir =  724
max_vir =  218
Q-Gamma tensors building time = 13.2225
after Q matrix memory used: 10912.82421875 MB
-------------------------------------------------------------------
|---------------   In-house Developed Davidson Starts   -----------|
Residual conv = 1e-05
Number of excited states = 1
Initial guess:   sTDA
Preconditioner:  sTDA
A matrix size =  65884 * 65884
sTDA nstate = 2
sTDA A diagonalization: threshold = 0.001 ; in 5 steps  0.487 seconds
sTDA excitation energies:
[3.49021059 3.93530821]
Intial guess time: 0.5052 seconds
    CPU time for df vj and vk    697.77 sec, wall time     52.07 sec
    CPU time for df vj and vk    512.42 sec, wall time     33.34 sec
Iteration  0
subspace size:  2
maximum residual norm 0.13339595410295058
sTDA Preconditioning Done after  8 steps;  0.1614 seconds
subgencost 0.0186 11.5 %
mvcost 0.0879 54.46 %
GScost 0.016 9.94 %
subcost 0.0031 1.9 %
m,new_m 2 3
    CPU time for df vj and vk    351.37 sec, wall time     27.33 sec
    CPU time for df vj and vk    256.30 sec, wall time     16.58 sec
new generated guesses: 1
Iteration  1
subspace size:  3
maximum residual norm 0.02680580957314796
sTDA Preconditioning Done after  9 steps;  0.1668 seconds
subgencost 0.0206 12.35 %
mvcost 0.0913 54.7 %
GScost 0.0163 9.75 %
subcost 0.0029 1.74 %
m,new_m 3 4
    CPU time for df vj and vk    358.48 sec, wall time     29.50 sec
    CPU time for df vj and vk    258.30 sec, wall time     16.94 sec
new generated guesses: 1
Iteration  2
subspace size:  4
maximum residual norm 0.010738236312801549
sTDA Preconditioning Done after  6 steps;  0.1091 seconds
subgencost 0.0099 9.1 %
mvcost 0.064 58.69 %
GScost 0.0086 7.87 %
subcost 0.0022 2.01 %
m,new_m 4 5
    CPU time for df vj and vk    345.96 sec, wall time     26.76 sec
    CPU time for df vj and vk    260.21 sec, wall time     17.12 sec
new generated guesses: 1
Iteration  3
subspace size:  5
maximum residual norm 0.0033938243112716583
sTDA Preconditioning Done after  6 steps;  0.1313 seconds
subgencost 0.0109 8.27 %
mvcost 0.0791 60.24 %
GScost 0.0094 7.18 %
subcost 0.0021 1.6 %
m,new_m 5 6
    CPU time for df vj and vk    351.48 sec, wall time     27.38 sec
    CPU time for df vj and vk    260.31 sec, wall time     17.07 sec
new generated guesses: 1
Iteration  4
subspace size:  6
maximum residual norm 0.0010950026496470314
sTDA Preconditioning Done after  5 steps;  0.0864 seconds
subgencost 0.0079 9.1 %
mvcost 0.0468 54.21 %
GScost 0.0067 7.8 %
subcost 0.0016 1.88 %
m,new_m 6 7
    CPU time for df vj and vk    348.09 sec, wall time     26.86 sec
    CPU time for df vj and vk    261.10 sec, wall time     17.32 sec
new generated guesses: 1
Iteration  5
subspace size:  7
maximum residual norm 0.00035086383945439795
sTDA Preconditioning Done after  6 steps;  0.0997 seconds
subgencost 0.0102 10.28 %
mvcost 0.0559 56.11 %
GScost 0.0089 8.9 %
subcost 0.002 2.0 %
m,new_m 7 8
    CPU time for df vj and vk    352.29 sec, wall time     27.98 sec
    CPU time for df vj and vk    258.22 sec, wall time     16.93 sec
new generated guesses: 1
Iteration  6
subspace size:  8
maximum residual norm 0.00012522766405390878
sTDA Preconditioning Done after  4 steps;  0.0816 seconds
subgencost 0.0075 9.2 %
mvcost 0.0429 52.58 %
GScost 0.006 7.34 %
subcost 0.0016 1.92 %
m,new_m 8 9
    CPU time for df vj and vk    350.02 sec, wall time     26.97 sec
    CPU time for df vj and vk    264.91 sec, wall time     17.31 sec
new generated guesses: 1
Iteration  7
subspace size:  9
maximum residual norm 3.755855526962178e-05
sTDA Preconditioning Done after  6 steps;  0.1275 seconds
subgencost 0.0112 8.76 %
mvcost 0.0773 60.64 %
GScost 0.0093 7.31 %
subcost 0.002 1.59 %
m,new_m 9 10
    CPU time for df vj and vk    348.49 sec, wall time     26.74 sec
    CPU time for df vj and vk    262.35 sec, wall time     17.25 sec
new generated guesses: 1
Iteration  8
subspace size:  10
maximum residual norm 1.3538964041095174e-05
sTDA Preconditioning Done after  4 steps;  0.0751 seconds
subgencost 0.0065 8.71 %
mvcost 0.0403 53.65 %
GScost 0.0056 7.4 %
subcost 0.0015 1.98 %
m,new_m 10 11
    CPU time for df vj and vk    344.62 sec, wall time     26.75 sec
    CPU time for df vj and vk    260.16 sec, wall time     17.12 sec
new generated guesses: 1
Iteration  9
subspace size:  11
maximum residual norm 4.110011729332973e-06
Davidson procedure aborted
Davidson done after  579.8693 seconds
Total steps = 10
Final subspace shape =  (11, 11)
Preconditioning time: 1.0477 0.18 %
In-house Davidson time: 579.8872 seconds
Excited State energies (eV) =
[3.65958623]
|---------------   In-house Developed Davidson Done   -----------|
-------------------------------------------------------------------
|---------------   In-house Developed Davidson Starts   -----------|
Residual conv = 1e-05
Number of excited states = 1
Initial guess:   Adiag
Preconditioner:  Adiag
A matrix size =  65884 * 65884
Intial guess time: 0.0096 seconds
    CPU time for df vj and vk    686.20 sec, wall time     50.63 sec
    CPU time for df vj and vk    514.53 sec, wall time     33.61 sec
Iteration  0
subspace size:  2
maximum residual norm 0.1275763872576877
m,new_m 2 3
    CPU time for df vj and vk    349.58 sec, wall time     26.95 sec
    CPU time for df vj and vk    264.72 sec, wall time     17.54 sec
new generated guesses: 1
Iteration  1
subspace size:  3
maximum residual norm 0.04385157917687547
m,new_m 3 4
    CPU time for df vj and vk    354.55 sec, wall time     27.45 sec
    CPU time for df vj and vk    263.00 sec, wall time     17.10 sec
new generated guesses: 1
Iteration  2
subspace size:  4
maximum residual norm 0.02286877370138139
m,new_m 4 5
    CPU time for df vj and vk    348.81 sec, wall time     26.88 sec
    CPU time for df vj and vk    261.82 sec, wall time     17.03 sec
new generated guesses: 1
Iteration  3
subspace size:  5
maximum residual norm 0.010070771690927408
m,new_m 5 6
    CPU time for df vj and vk    347.93 sec, wall time     26.64 sec
    CPU time for df vj and vk    261.98 sec, wall time     17.41 sec
new generated guesses: 1
Iteration  4
subspace size:  6
maximum residual norm 0.005333633938061337
m,new_m 6 7
    CPU time for df vj and vk    350.95 sec, wall time     27.54 sec
    CPU time for df vj and vk    260.45 sec, wall time     17.07 sec
new generated guesses: 1
Iteration  5
subspace size:  7
maximum residual norm 0.0029555497208487674
m,new_m 7 8
    CPU time for df vj and vk    358.45 sec, wall time     27.61 sec
    CPU time for df vj and vk    257.42 sec, wall time     16.75 sec
new generated guesses: 1
Iteration  6
subspace size:  8
maximum residual norm 0.0018847755029446124
m,new_m 8 9
    CPU time for df vj and vk    347.99 sec, wall time     27.23 sec
    CPU time for df vj and vk    266.13 sec, wall time     17.65 sec
new generated guesses: 1
Iteration  7
subspace size:  9
maximum residual norm 0.001002060540820337
m,new_m 9 10
    CPU time for df vj and vk    351.96 sec, wall time     27.22 sec
    CPU time for df vj and vk    266.12 sec, wall time     17.54 sec
new generated guesses: 1
Iteration  8
subspace size:  10
maximum residual norm 0.0007051015405877519
m,new_m 10 11
    CPU time for df vj and vk    359.45 sec, wall time     28.45 sec
    CPU time for df vj and vk    264.75 sec, wall time     17.38 sec
new generated guesses: 1
Iteration  9
subspace size:  11
maximum residual norm 0.00033516634687843
m,new_m 11 12
    CPU time for df vj and vk    350.78 sec, wall time     27.43 sec
    CPU time for df vj and vk    261.69 sec, wall time     17.18 sec
new generated guesses: 1
Iteration  10
subspace size:  12
maximum residual norm 0.00013710274042258867
m,new_m 12 13
    CPU time for df vj and vk    361.31 sec, wall time     27.81 sec
    CPU time for df vj and vk    257.55 sec, wall time     16.93 sec
new generated guesses: 1
Iteration  11
subspace size:  13
maximum residual norm 8.936823323466211e-05
m,new_m 13 14
    CPU time for df vj and vk    355.09 sec, wall time     27.62 sec
    CPU time for df vj and vk    260.42 sec, wall time     17.00 sec
new generated guesses: 1
Iteration  12
subspace size:  14
maximum residual norm 3.371484976863163e-05
m,new_m 14 15
    CPU time for df vj and vk    349.18 sec, wall time     26.68 sec
    CPU time for df vj and vk    259.13 sec, wall time     16.97 sec
new generated guesses: 1
Iteration  13
subspace size:  15
maximum residual norm 1.5956181043982693e-05
m,new_m 15 16
    CPU time for df vj and vk    356.66 sec, wall time     27.48 sec
    CPU time for df vj and vk    260.53 sec, wall time     17.10 sec
new generated guesses: 1
Iteration  14
subspace size:  16
maximum residual norm 9.044948731460814e-06
Davidson procedure aborted
Davidson done after  848.3492 seconds
Total steps = 15
Final subspace shape =  (16, 16)
Preconditioning time: 0.0329 0.0 %
In-house Davidson time: 848.3625 seconds
Excited State energies (eV) =
[3.65958623]
|---------------   In-house Developed Davidson Done   -----------|
xyzfile = 37_Rpet.xyz
checkfile = True
method = RKS
functional = wb97x
basis_set = def2-tzvp
density_fit = True
grid_level = 3
nstates = 1
pytd = False
TDA = True
TDDFT = False
dynpol = False
dynpol_omega = []
stapol = False
sTDA = False
sTDDFT = False
Truncate_test = False
truncate_virtual = 40.0
TDA_options = [0, 1]
TDDFT_options = [0]
dynpol_options = [0]
stapol_options = [0]
TDA_tolerance = 1e-05
TDDFT_tolerance = 1e-05
dynpol_tolerance = 1e-05
stapol_tolerance = 1e-05
max = 35
TDA_initialTOL = 0.001
TDDFT_initialTOL = 0.001
dynpol_initprecTOL = 0.01
stapol_initprecTOL = 0.01
TDA_precondTOL = 0.01
TDDFT_precondTOL = 0.01
TDA_extrainitial = 8
TDDFT_extrainitial = 8
TDDFT_extrainitial_3n = False
eigensolver_tol = 1e-05
memory = 50000
verbose = 5
beta = []
alpha = []
