curpath /scratch/pbsjobs/job.15971974.hpc
lib.num_threads() =  16
at beginning memory used: 48.953125 MB
mol.max_memory 60000


System: uname_result(system='Linux', node='classct015', release='3.10.0-1127.el7.x86_64', version='#1 SMP Tue Feb 18 16:39:12 EST 2020', machine='x86_64', processor='x86_64')  Threads 16
Python 3.7.0 (default, Aug 23 2018, 14:24:33) 
[GCC 6.3.0]
numpy 1.18.1  scipy 1.4.1
Date: Wed Jul  7 22:56:40 2021
PySCF version 1.7.4
PySCF path  /home/zzz6/.local/lib/python3.7/site-packages/pyscf

[CONFIG] conf_file None
[INPUT] verbose = 5
[INPUT] max_memory = 60000 
[INPUT] num. atoms = 70
[INPUT] num. electrons = 282
[INPUT] charge = 0
[INPUT] spin (= nelec alpha-beta = 2S) = 0
[INPUT] symmetry False subgroup None
[INPUT] Mole.unit = angstrom
[INPUT]  1 S     -5.800883633498  -3.514632353597  -1.494352355841 AA  -10.962081347783  -6.641692576834  -2.823916686139 Bohr
[INPUT]  2 O     -3.304541711295   2.743663156580   0.235433913679 AA   -6.244678801549   5.184771943996   0.444905617288 Bohr
[INPUT]  3 O      6.684337002577  -0.883639348480   0.856582749924 AA   12.631566259167  -1.669836361516   1.618706800384 Bohr
[INPUT]  4 O      3.869674355077   2.574857927532  -0.186838104422 AA    7.312624722349   4.865776292700  -0.353072846990 Bohr
[INPUT]  5 O      2.201563639397  -1.601106765479   1.428776514732 AA    4.160352324261  -3.025653282944   2.699996306054 Bohr
[INPUT]  6 O     -6.065147270147  -5.044186193549  -0.896931205840 AA  -11.461467245732  -9.532130427120  -1.694954331614 Bohr
[INPUT]  7 O     -4.529964235899  -3.521000739255  -2.220868365611 AA   -8.560391759924  -6.653727081583  -4.196832969715 Bohr
[INPUT]  8 O     -7.060441712692  -3.065513289210  -2.115058209200 AA  -13.342301155443  -5.792980547821  -3.996880752901 Bohr
[INPUT]  9 N     -4.608246361408   1.011924956323   0.789439627656 AA   -8.708323537584   1.912261026062   1.491824688149 Bohr
[INPUT] 10 N      5.277284577935   0.863098723623   0.377924542226 AA    9.972622533688   1.631020206110   0.714173880559 Bohr
[INPUT] 11 N      4.439003598018  -1.205721480684   1.200311843695 AA    8.388501066212  -2.278483380997   2.268260648656 Bohr
[INPUT] 12 C     -5.019148825797  -0.356443614813   1.067973345660 AA   -9.484816659188  -0.673580810846   2.018177131632 Bohr
[INPUT] 13 C      6.433188685420   1.670024532033  -0.051972655327 AA   12.156964723095   3.155888986848  -0.098214084534 Bohr
[INPUT] 14 C      4.715468828377  -2.578575388151   1.659145623335 AA    8.910944634557  -4.872801275149   3.135330828874 Bohr
[INPUT] 15 C     -5.149977158588  -1.184610347041  -0.220976323474 AA   -9.732046377496  -2.238589120233  -0.417584731379 Bohr
[INPUT] 16 C      6.779711789719   1.439770886759  -1.527503354274 AA   12.811798486054   2.720772658097  -2.886562993932 Bohr
[INPUT] 17 C      4.750034718994  -3.583207139386   0.501809956480 AA    8.976264701074  -6.771280141025   0.948283384327 Bohr
[INPUT] 18 C     -5.460169844113   2.071099953466   0.459973676942 AA  -10.318225598983   3.913811688650   0.869224273930 Bohr
[INPUT] 19 C      5.541610803123  -0.438355850858   0.811941302350 AA   10.472126706834  -0.828372503222   1.534346690664 Bohr
[INPUT] 20 C     -3.296152326772   1.426206109143   0.618530531792 AA   -6.228825162447   2.695138943462   1.168853304769 Bohr
[INPUT] 21 C     -5.556866621696  -2.628959077024   0.071680913303 AA  -10.500956025743  -4.968012648264   0.135457294501 Bohr
[INPUT] 22 C      2.862253726951   0.562103045065   0.625542527485 AA    5.408875642953   1.062220808958   1.182104056214 Bohr
[INPUT] 23 C      3.994514318550   1.426210724412   0.241136941896 AA    7.548538062713   2.695147665056   0.455682778699 Bohr
[INPUT] 24 C      3.089177044789  -0.805390251294   1.107645238394 AA    5.837698564944  -1.521966998341   2.093146143743 Bohr
[INPUT] 25 C     -4.622174722425   3.149284627041   0.129066950301 AA   -8.734644325271   5.951285433411   0.243901187802 Bohr
[INPUT] 26 C      7.978763024210   2.281014514159  -1.984356862347 AA   15.077676928563   4.310492717919  -3.749891003237 Bohr
[INPUT] 27 C      5.032368800868  -5.012993765693   0.981841346847 AA    9.509798791446  -9.473185281311   1.855411243314 Bohr
[INPUT] 28 C     -6.850872022875   2.202445604130   0.422232058834 AA  -12.946271837679   4.162018996059   0.797902952207 Bohr
[INPUT] 29 C     -2.135160744228   0.701484748045   0.786281614488 AA   -4.034869038514   1.325614054365   1.485856908164 Bohr
[INPUT] 30 C      1.595445979085   1.117176017295   0.491129289235 AA    3.014955947009   2.111156705619   0.928099848406 Bohr
[INPUT] 31 C     -5.104585289495   4.396727016749  -0.239799271212 AA   -9.646268176629   8.308609906131  -0.453154947461 Bohr
[INPUT] 32 C      8.336319524702   2.059606721016  -3.458551907544 AA   15.753360788551   3.892092627034  -6.535715892851 Bohr
[INPUT] 33 C      5.068982318462  -6.032336826296  -0.162500147570 AA    9.578988312156 -11.399464492827  -0.307080774109 Bohr
[INPUT] 34 C     -7.357431064129   3.462436618203   0.047937989199 AA  -13.903529691571   6.543056932068   0.090589670549 Bohr
[INPUT] 35 C     -0.837806673390   1.233637684237   0.570150995486 AA   -1.583225158040   2.331237360151   1.077429231116 Bohr
[INPUT] 36 C     -6.507886801343   4.534576661651  -0.273515931004 AA  -12.298123704210   8.569107981364  -0.516870200303 Bohr
[INPUT] 37 C      0.336602357047   0.522740742740   0.751930564199 AA    0.636086267702   0.987836837931   1.420942831026 Bohr
[INPUT] 38 H     -5.979516164548  -0.311694856744   1.609054054804 AA  -11.299647908406  -0.589017913681   3.040671483201 Bohr
[INPUT] 39 H     -4.280478519089  -0.802426699360   1.754872880992 AA   -8.088932083161  -1.516366696830   3.316229128502 Bohr
[INPUT] 40 H      7.279979558600   1.390293938936   0.592268123926 AA   13.757167558185   2.627274777232   1.119224546531 Bohr
[INPUT] 41 H      6.155721045194   2.720632099390   0.119595111916 AA   11.632626874639   5.141249553548   0.226002007358 Bohr
[INPUT] 42 H      3.912864907156  -2.835669637965   2.366320118244 AA    7.394243036946  -5.358638995499   4.471696946529 Bohr
[INPUT] 43 H      5.685251422988  -2.554255626855   2.177886668423 AA   10.743568138742  -4.826843586885   4.115609333660 Bohr
[INPUT] 44 H     -4.189091282496  -1.179306403154  -0.763178763851 AA   -7.916235234720  -2.228566118906  -1.442198847763 Bohr
[INPUT] 45 H     -5.904828789532  -0.717870202136  -0.878331033049 AA  -11.158509224662  -1.356578075024  -1.659805099168 Bohr
[INPUT] 46 H      5.893905808320   1.687179413700  -2.141742920328 AA   11.137867781709   3.188307014897  -4.047307548646 Bohr
[INPUT] 47 H      6.998876923962   0.366032422741  -1.676562571550 AA   13.225960565826   0.691701031692  -3.168244090926 Bohr
[INPUT] 48 H      5.529825245931  -3.269514338724  -0.216868472887 AA   10.449855231515  -6.178486660527  -0.409822018809 Bohr
[INPUT] 49 H      3.778261775654  -3.550326651198  -0.024987777422 AA    7.139879982899  -6.709145023508  -0.047220055789 Bohr
[INPUT] 50 H     -6.515767903512  -2.707165836546   0.610143120430 AA  -12.313016828870  -5.115802004851   1.153003394400 Bohr
[INPUT] 51 H     -4.780872190447  -3.189753133332   0.618365093336 AA   -9.034539076493  -6.027759826971   1.168540671396 Bohr
[INPUT] 52 H      8.854707024060   2.041060651271  -1.350464671660 AA   16.732971188736   3.857045634528  -2.552008370337 Bohr
[INPUT] 53 H      7.758744491329   3.352851664470  -1.812825282416 AA   14.661902159089   6.335971382140  -3.425743295453 Bohr
[INPUT] 54 H      5.997408701357  -5.030795249209   1.525082473507 AA   11.333459902649  -9.506825209768   2.881988192302 Bohr
[INPUT] 55 H      4.259518030626  -5.309417333768   1.717884860347 AA    8.049322500530 -10.033344641839   3.246331899592 Bohr
[INPUT] 56 H     -7.518564581436   1.371328337673   0.664371220899 AA  -14.208027908769   2.591434985056   1.255479652543 Bohr
[INPUT] 57 H     -2.233953855876  -0.342645694022   1.097807812799 AA   -4.221560962522  -0.647506519464   2.074556103597 Bohr
[INPUT] 58 H      1.603195251305   2.154176600711   0.126886107412 AA    3.029599949169   4.070803799291   0.239779992020 Bohr
[INPUT] 59 H     -4.429808217486   5.218188998344  -0.491380591539 AA   -8.371124315395   9.860948073088  -0.928574740935 Bohr
[INPUT] 60 H      7.487681841347   2.321889988441  -4.116343043795 AA   14.149667988025   4.387736169524  -7.778760987531 Bohr
[INPUT] 61 H      9.201357341213   2.675420129992  -3.761630963168 AA   17.388045349148   5.055811313833  -7.108452302071 Bohr
[INPUT] 62 H      8.591151384509   1.001306016693  -3.650208391279 AA   16.234923211400   1.892194138429  -6.897894157107 Bohr
[INPUT] 63 H      5.854690845460  -5.776509088282  -0.896497503611 AA   11.063762241918 -10.916020132913  -1.694134753180 Bohr
[INPUT] 64 H      5.274256740398  -7.051294961944   0.210385556014 AA    9.966900749993 -13.325016301599   0.397571081430 Bohr
[INPUT] 65 H      4.104828882804  -6.057680854237  -0.702335748472 AA    7.757002376705 -11.447357764529  -1.327222212104 Bohr
[INPUT] 66 H     -8.441375077031   3.605476956382   0.004531035182 AA  -15.951887010319   6.813363995993   0.008562415554 Bohr
[INPUT] 67 H     -0.771338774988   2.277069823975   0.233846756661 AA   -1.457619033985   4.303038333824   0.441906325208 Bohr
[INPUT] 68 H     -6.940858622496   5.497368972553  -0.560517455114 AA  -13.116321865843  10.388521763808  -1.059224478204 Bohr
[INPUT] 69 H      0.313537341668  -0.515255591060   1.097334509242 AA    0.592499705576  -0.973691951254   2.073661689502 Bohr
[INPUT] 70 H     -6.965958658455  -5.288112396131  -1.199255678466 AA  -13.163754059523  -9.993084144605  -2.266264785629 Bohr
[INPUT] ---------------- BASIS SET ---------------- 
[INPUT] l, kappa, [nprim/nctr], expnt,             c_1 c_2 ...
[INPUT] H
[INPUT] 0    0    [3    /1   ]  34.061341         0.0060251978
                                5.1235746         0.045021094
                                1.1646626         0.20189726
[INPUT] 0    0    [1    /1   ]  0.32723041           1
[INPUT] 0    0    [1    /1   ]  0.10307241           1
[INPUT] 1    0    [1    /1   ]  0.8                  1
[INPUT] S
[INPUT] 0    0    [7    /1   ]  60700.928104      0.00054695944225
                                9102.6106854      0.0042297224557
                                2071.4166009      0.021747824159
                                586.02476821      0.085100053589
                                190.55395021      0.24799128459
                                67.63038426       0.46703640406
                                25.127306905      0.3643458755
[INPUT] 0    0    [3    /1   ]  112.5746301       0.02167004024
                                34.795554217      0.09360230176
                                6.5115556215      -0.26068001422
[INPUT] 0    0    [2    /1   ]  3.2399032261      1.2842089435
                                1.5477160881      0.66036416584
[INPUT] 0    0    [1    /1   ]  0.40541030112        1
[INPUT] 0    0    [1    /1   ]  0.14550651059        1
[INPUT] 1    0    [5    /1   ]  564.36716027      0.0024796796317
                                133.42624379      0.01967793025
                                42.468271189      0.089980008258
                                15.61652758       0.25705880575
                                6.1093988469      0.43515167292
[INPUT] 1    0    [1    /1   ]  2.4404160198         1
[INPUT] 1    0    [1    /1   ]  0.83882201296        1
[INPUT] 1    0    [1    /1   ]  0.312887469          1
[INPUT] 1    0    [1    /1   ]  0.10770109004        1
[INPUT] 2    0    [2    /1   ]  3.756              0.2
                                0.812                1
[INPUT] 2    0    [1    /1   ]  0.273                1
[INPUT] 3    0    [1    /1   ]  0.557                1
[INPUT] N
[INPUT] 0    0    [6    /1   ]  19730.800647      0.00021887984991
                                2957.8958745      0.0016960708803
                                673.22133595      0.0087954603538
                                190.68249494      0.035359382605
                                62.295441898      0.11095789217
                                22.654161182      0.24982972552
[INPUT] 0    0    [2    /1   ]  8.9791477428      0.40623896148
                                3.686300237       0.24338217176
[INPUT] 0    0    [1    /1   ]  0.84660076805        1
[INPUT] 0    0    [1    /1   ]  0.33647133771        1
[INPUT] 0    0    [1    /1   ]  0.13647653675        1
[INPUT] 1    0    [4    /1   ]  49.20038051       0.0055552416751
                                11.346790537      0.038052379723
                                3.4273972411      0.14953671029
                                1.1785525134      0.3494930523
[INPUT] 1    0    [1    /1   ]  0.41642204972        1
[INPUT] 1    0    [1    /1   ]  0.14260826011        1
[INPUT] 2    0    [1    /1   ]  1.654                1
[INPUT] 2    0    [1    /1   ]  0.469                1
[INPUT] 3    0    [1    /1   ]  1.093                1
[INPUT] C
[INPUT] 0    0    [6    /1   ]  13575.349682      0.00022245814352
                                2035.233368       0.0017232738252
                                463.22562359      0.0089255715314
                                131.20019598      0.035727984502
                                42.853015891      0.11076259931
                                15.584185766      0.24295627626
[INPUT] 0    0    [2    /1   ]  6.2067138508      0.41440263448
                                2.5764896527      0.23744968655
[INPUT] 0    0    [1    /1   ]  0.57696339419        1
[INPUT] 0    0    [1    /1   ]  0.22972831358        1
[INPUT] 0    0    [1    /1   ]  0.095164440028       1
[INPUT] 1    0    [4    /1   ]  34.697232244      0.0053333657805
                                7.9582622826      0.035864109092
                                2.3780826883      0.14215873329
                                0.81433208183     0.34270471845
[INPUT] 1    0    [1    /1   ]  0.28887547253        1
[INPUT] 1    0    [1    /1   ]  0.10056823671        1
[INPUT] 2    0    [1    /1   ]  1.097                1
[INPUT] 2    0    [1    /1   ]  0.318                1
[INPUT] 3    0    [1    /1   ]  0.761                1
[INPUT] O
[INPUT] 0    0    [6    /1   ]  27032.382631      0.00021726302465
                                4052.3871392      0.0016838662199
                                922.3272271       0.0087395616265
                                261.24070989      0.035239968808
                                85.354641351      0.11153519115
                                31.035035245      0.25588953961
[INPUT] 0    0    [2    /1   ]  12.260860728      0.39768730901
                                4.9987076005      0.2462784943
[INPUT] 0    0    [1    /1   ]  1.1703108158         1
[INPUT] 0    0    [1    /1   ]  0.46474740994        1
[INPUT] 0    0    [1    /1   ]  0.18504536357        1
[INPUT] 1    0    [4    /1   ]  63.274954801      0.0060685103418
                                14.627049379      0.041912575824
                                4.4501223456      0.16153841088
                                1.5275799647      0.35706951311
[INPUT] 1    0    [1    /1   ]  0.52935117943        1
[INPUT] 1    0    [1    /1   ]  0.1747842127         1
[INPUT] 2    0    [1    /1   ]  2.314                1
[INPUT] 2    0    [1    /1   ]  0.645                1
[INPUT] 3    0    [1    /1   ]  1.428                1

nuclear repulsion = 3953.27958118678
number of shells = 541
number of NR pGTOs = 1983
number of NR cGTOs = 1351
basis = def2-tzvp
ecp = {}
CPU time:         2.36
RKS
Density fitting turned on
Molecule built
Calculating SCF Energy...


******** <class 'pyscf.df.df_jk.density_fit.<locals>.DFHF'> ********
method = DFHF-RKS-RHF
initial guess = chkfile
damping factor = 0
level_shift factor = 0
DIIS = <class 'pyscf.scf.diis.CDIIS'>
diis_start_cycle = 1
diis_space = 8
SCF conv_tol = 1e-10
SCF conv_tol_grad = None
SCF max_cycles = 50
direct_scf = True
direct_scf_tol = 1e-13
chkfile to save SCF result = 70_Merocyanine_pbe0.chk
max_memory 60000 MB (current use 56 MB)
XC functionals = pbe0
small_rho_cutoff = 1e-07
radial grids: 
    Treutler-Ahlrichs [JCP 102, 346 (1995); DOI:10.1063/1.469408] (M4) radial grids
    
becke partition: Becke, JCP 88, 2547 (1988); DOI:10.1063/1.454033
pruning grids: <function nwchem_prune at 0x7fdbd60ce048>
grids dens level: 3
symmetrized grids: False
atomic radii adjust function: <function treutler_atomic_radii_adjust at 0x7fdbd789bf28>
Set gradient conv threshold to 1e-05
atom S rad-grids = 80, ang-grids = [ 50  50  50  50  50  50  50  50  50  50  50  50  50  50  50  50  50  50
  50  50  50  50  50  50  86  86  86  86  86  86  86  86  86  86  86  86
  86 350 350 350 350 350 350 350 350 350 434 434 434 434 434 434 434 434
 434 434 434 434 434 434 434 434 434 434 350 350 350 350 350 350 350 350
 350 350 350 350 350 350 350 350]
atom O rad-grids = 75, ang-grids = [ 50  50  50  50  50  50  50  50  50  50  50  50  50  50  50  50  50  50
  50  50  50  50  86  86  86  86  86  86  86  86  86 266 266 266 266 266
 266 266 302 302 302 302 302 302 302 302 302 302 302 302 302 302 302 302
 302 302 302 266 266 266 266 266 266 266 266 266 266 266 266 266 266 266
 266 266 266]
atom N rad-grids = 75, ang-grids = [ 50  50  50  50  50  50  50  50  50  50  50  50  50  50  50  50  50  50
  50  50  50  50  50  86  86  86  86  86  86  86  86  86 266 266 266 266
 266 266 266 302 302 302 302 302 302 302 302 302 302 302 302 302 302 302
 302 302 302 302 266 266 266 266 266 266 266 266 266 266 266 266 266 266
 266 266 266]
atom C rad-grids = 75, ang-grids = [ 50  50  50  50  50  50  50  50  50  50  50  50  50  50  50  50  50  50
  50  50  50  50  50  86  86  86  86  86  86  86  86  86  86 266 266 266
 266 266 266 266 302 302 302 302 302 302 302 302 302 302 302 302 302 302
 302 302 302 302 302 302 266 266 266 266 266 266 266 266 266 266 266 266
 266 266 266]
atom H rad-grids = 50, ang-grids = [ 50  50  50  50  50  50  50  50  50  50  50  50  50  50  86  86  86  86
 266 266 266 266 302 302 302 302 302 302 302 302 302 302 302 302 302 266
 266 266 266 266 266 266 266 266 266 266 266 266 266 266]
tot grids = 853096
Drop grids 153841
    CPU time for setting up grids    196.74 sec, wall time     14.06 sec
nelec by numeric integration = 282.0002327043047
    CPU time for vxc    299.71 sec, wall time     20.30 sec
******** <class 'pyscf.df.df.DF'> ********
auxbasis = None
max_memory = 60000
_cderi_to_save = /tmp/job.15971974.hpc/tmpzi_c7kog
Default auxbasis def2-tzvp-jkfit is used for H def2-tzvp
Default auxbasis def2-tzvp-jkfit is used for S def2-tzvp
Default auxbasis def2-tzvp-jkfit is used for N def2-tzvp
Default auxbasis def2-tzvp-jkfit is used for C def2-tzvp
Default auxbasis def2-tzvp-jkfit is used for O def2-tzvp
num shells = 1136, num cGTOs = 3442
size of aux basis 3442
int3c2e [1/3], AO [0:319], nrow = 399171
int3c2e [2/3], AO [319:484], nrow = 400309
int3c2e [3/3], AO [484:541], nrow = 113796
    CPU time for cholesky_eri    427.57 sec, wall time     69.24 sec
    CPU time for df vj and vk   1437.89 sec, wall time    145.61 sec
E1 = -10730.306072986603  Ecoul = 4936.816094876934  Exc = -258.06956949085964
init E= -2098.27996641375
cond(S) = 1228992.8731787996
    CPU time for initialize scf   1949.50 sec, wall time    181.46 sec
  HOMO = -0.2091338695912  LUMO = -0.0902902759679855
  mo_energy =
[-8.92620795e+01 -1.93137994e+01 -1.92879840e+01 -1.92376373e+01
 -1.92348938e+01 -1.91742390e+01 -1.91718659e+01 -1.91687544e+01
 -1.44870773e+01 -1.44278297e+01 -1.44277561e+01 -1.03726880e+01
 -1.03564075e+01 -1.03300809e+01 -1.03273737e+01 -1.03269412e+01
 -1.03223299e+01 -1.03134527e+01 -1.03063339e+01 -1.02816187e+01
 -1.02733655e+01 -1.02703731e+01 -1.02649329e+01 -1.02631766e+01
 -1.02609802e+01 -1.02520709e+01 -1.02486001e+01 -1.02449484e+01
 -1.02443338e+01 -1.02351295e+01 -1.02266012e+01 -1.02126022e+01
 -1.02116443e+01 -1.02088128e+01 -1.02082771e+01 -1.02041429e+01
 -1.02032820e+01 -8.20787794e+00 -6.14625835e+00 -6.14301064e+00
 -6.14263981e+00 -1.19142885e+00 -1.18261917e+00 -1.09144470e+00
 -1.08413824e+00 -1.05904300e+00 -1.05756507e+00 -1.05617764e+00
 -1.03635565e+00 -9.65383565e-01 -9.42254798e-01 -9.20147413e-01
 -8.80354674e-01 -8.62827919e-01 -8.37534624e-01 -8.17737729e-01
 -8.13913219e-01 -8.05312815e-01 -8.04159859e-01 -7.94379380e-01
 -7.60350034e-01 -7.42614423e-01 -7.32140675e-01 -7.23219429e-01
 -6.98230740e-01 -6.84554544e-01 -6.72168956e-01 -6.62758757e-01
 -6.61961873e-01 -6.55945285e-01 -6.45094679e-01 -6.21114137e-01
 -6.11467498e-01 -5.94991048e-01 -5.90415203e-01 -5.87767046e-01
 -5.85955094e-01 -5.80511900e-01 -5.76441900e-01 -5.53170508e-01
 -5.46955077e-01 -5.41584766e-01 -5.40871470e-01 -5.31868073e-01
 -5.15796701e-01 -5.06782985e-01 -5.02393200e-01 -4.94222700e-01
 -4.90936571e-01 -4.87017742e-01 -4.82025645e-01 -4.81173548e-01
 -4.78663558e-01 -4.74254988e-01 -4.70465565e-01 -4.68109371e-01
 -4.62380793e-01 -4.56320281e-01 -4.48192431e-01 -4.47553077e-01
 -4.42388289e-01 -4.38278270e-01 -4.34486804e-01 -4.25694980e-01
 -4.24151629e-01 -4.16693444e-01 -4.14129189e-01 -4.10822979e-01
 -4.09616548e-01 -4.08867716e-01 -4.06923261e-01 -4.05382098e-01
 -4.03130194e-01 -4.02566199e-01 -3.97392852e-01 -3.92726389e-01
 -3.85500923e-01 -3.82550932e-01 -3.80034719e-01 -3.78033277e-01
 -3.65748017e-01 -3.58997073e-01 -3.55543031e-01 -3.53403256e-01
 -3.52387757e-01 -3.50031963e-01 -3.47696089e-01 -3.46902953e-01
 -3.37490447e-01 -3.36605200e-01 -3.24584085e-01 -3.23819285e-01
 -3.11230556e-01 -2.99773984e-01 -2.93593404e-01 -2.85139453e-01
 -2.79038534e-01 -2.70060439e-01 -2.64052361e-01 -2.57064997e-01
 -2.09133870e-01 -9.02902760e-02 -4.08845711e-02 -2.84557480e-02
 -4.85773797e-03  5.87873267e-04  1.20339443e-02  1.98225180e-02
  2.65942667e-02  3.02785038e-02  3.77979241e-02  4.07900125e-02
  4.30273768e-02  4.93319555e-02  5.31484350e-02  5.83945152e-02
  6.11767720e-02  6.30595231e-02  6.85452800e-02  7.23317488e-02
  7.33483859e-02  7.54577957e-02  7.74937572e-02  8.41807077e-02
  8.73510207e-02  8.98330915e-02  9.12547837e-02  9.32679587e-02
  9.58620771e-02  9.99208142e-02  1.01305490e-01  1.08148995e-01
  1.12507557e-01  1.16350663e-01  1.22115874e-01  1.23124045e-01
  1.24067004e-01  1.29099851e-01  1.30421633e-01  1.34162967e-01
  1.39027105e-01  1.40523299e-01  1.41016201e-01  1.44872779e-01
  1.45324935e-01  1.49013006e-01  1.50469629e-01  1.54168025e-01
  1.55113164e-01  1.58317120e-01  1.60250720e-01  1.63580446e-01
  1.65381577e-01  1.67871573e-01  1.70506254e-01  1.73205085e-01
  1.76998450e-01  1.80048560e-01  1.81613341e-01  1.83507861e-01
  1.86309824e-01  1.91223339e-01  1.95435917e-01  2.01623424e-01
  2.05221183e-01  2.07399825e-01  2.12242213e-01  2.14440534e-01
  2.15135928e-01  2.17985497e-01  2.20247907e-01  2.23015966e-01
  2.24899477e-01  2.28602746e-01  2.30786924e-01  2.34595238e-01
  2.37514189e-01  2.41866591e-01  2.45357069e-01  2.47487125e-01
  2.48062349e-01  2.52682334e-01  2.55790937e-01  2.57120323e-01
  2.60036010e-01  2.60996498e-01  2.63524649e-01  2.67834922e-01
  2.70122291e-01  2.74409835e-01  2.74742421e-01  2.79301876e-01
  2.81400681e-01  2.85347108e-01  2.91269023e-01  2.93943028e-01
  2.95301402e-01  2.98334226e-01  2.99927677e-01  3.02353931e-01
  3.05006164e-01  3.08215144e-01  3.09282278e-01  3.13775367e-01
  3.17452851e-01  3.19624424e-01  3.22084601e-01  3.26606412e-01
  3.29321923e-01  3.31142854e-01  3.33150601e-01  3.37854395e-01
  3.40104090e-01  3.44265137e-01  3.46616235e-01  3.49597313e-01
  3.54151835e-01  3.54711246e-01  3.57175733e-01  3.59438854e-01
  3.61752660e-01  3.63401871e-01  3.69349167e-01  3.72167494e-01
  3.75631143e-01  3.76581555e-01  3.79315863e-01  3.80799553e-01
  3.85332820e-01  3.86174991e-01  3.88603083e-01  3.89238115e-01
  3.93074924e-01  3.96546073e-01  3.98252729e-01  3.98619846e-01
  4.02489063e-01  4.09634947e-01  4.12014239e-01  4.15886654e-01
  4.17093985e-01  4.19524637e-01  4.20700182e-01  4.23816018e-01
  4.25574846e-01  4.27585813e-01  4.31704935e-01  4.36302896e-01
  4.38419033e-01  4.40592578e-01  4.42153772e-01  4.44387347e-01
  4.47051272e-01  4.50927526e-01  4.53119500e-01  4.56629103e-01
  4.58591157e-01  4.62081083e-01  4.64697357e-01  4.69101385e-01
  4.70857430e-01  4.71859196e-01  4.73366527e-01  4.75619412e-01
  4.77084038e-01  4.77868801e-01  4.79231408e-01  4.80108627e-01
  4.82200643e-01  4.83678048e-01  4.84588032e-01  4.86070324e-01
  4.86920760e-01  4.90655192e-01  4.94000481e-01  4.99575188e-01
  5.00898740e-01  5.03087950e-01  5.03477464e-01  5.08851345e-01
  5.10501807e-01  5.11614434e-01  5.15396270e-01  5.18341072e-01
  5.20322660e-01  5.25555949e-01  5.33055769e-01  5.34536455e-01
  5.41666197e-01  5.42632524e-01  5.45203716e-01  5.48935428e-01
  5.53973471e-01  5.54821546e-01  5.57003145e-01  5.61806324e-01
  5.65707513e-01  5.71121641e-01  5.73101195e-01  5.79358660e-01
  5.82309208e-01  5.84350836e-01  5.88949001e-01  5.92329544e-01
  5.94049969e-01  5.96092184e-01  5.97048864e-01  6.00012397e-01
  6.06061279e-01  6.08766395e-01  6.10334116e-01  6.15547518e-01
  6.17303879e-01  6.18388623e-01  6.26934307e-01  6.28185686e-01
  6.29151375e-01  6.32341305e-01  6.36307348e-01  6.42413446e-01
  6.45229211e-01  6.47335871e-01  6.53519483e-01  6.59504999e-01
  6.60028590e-01  6.65386471e-01  6.68499873e-01  6.69509747e-01
  6.72312910e-01  6.73991941e-01  6.75826786e-01  6.82387588e-01
  6.87469743e-01  6.88250426e-01  6.90637053e-01  6.95597040e-01
  7.01873979e-01  7.03319374e-01  7.04719571e-01  7.08441508e-01
  7.10227118e-01  7.13955373e-01  7.16339520e-01  7.20294645e-01
  7.22460111e-01  7.24279670e-01  7.28968996e-01  7.29802727e-01
  7.33591980e-01  7.39811847e-01  7.40474848e-01  7.46953067e-01
  7.51223452e-01  7.52758506e-01  7.61298531e-01  7.68563411e-01
  7.72356193e-01  7.78773521e-01  7.80344448e-01  7.84866301e-01
  7.93866062e-01  8.02526649e-01  8.03330645e-01  8.11376863e-01
  8.13374694e-01  8.20413550e-01  8.25218219e-01  8.26433337e-01
  8.30238154e-01  8.31673635e-01  8.36113737e-01  8.38792164e-01
  8.45471182e-01  8.47105961e-01  8.53113119e-01  8.54947358e-01
  8.55067967e-01  8.58829419e-01  8.59836565e-01  8.63648831e-01
  8.68390479e-01  8.70350860e-01  8.71424505e-01  8.76010037e-01
  8.76548207e-01  8.80770709e-01  8.81845517e-01  8.92126948e-01
  8.94398567e-01  8.99464580e-01  9.01927003e-01  9.05817126e-01
  9.08639688e-01  9.11929974e-01  9.19828774e-01  9.27093365e-01
  9.32910812e-01  9.36900267e-01  9.45848044e-01  9.52729631e-01
  9.57568073e-01  9.60347084e-01  9.69976005e-01  9.72247335e-01
  9.74811136e-01  9.77767635e-01  9.89631597e-01  9.99010297e-01
  1.00273863e+00  1.00601702e+00  1.01185425e+00  1.01426210e+00
  1.02419095e+00  1.02966412e+00  1.03450795e+00  1.03623873e+00
  1.04039050e+00  1.04167778e+00  1.04761598e+00  1.05656785e+00
  1.06011172e+00  1.06190268e+00  1.06949944e+00  1.07473494e+00
  1.08117762e+00  1.08473073e+00  1.09670371e+00  1.09742522e+00
  1.10313009e+00  1.10742473e+00  1.11097266e+00  1.11740055e+00
  1.11995227e+00  1.12165756e+00  1.12388401e+00  1.12939072e+00
  1.13364636e+00  1.14149223e+00  1.14372068e+00  1.14745696e+00
  1.15081885e+00  1.15422660e+00  1.15867544e+00  1.16064048e+00
  1.16262032e+00  1.16573963e+00  1.16993686e+00  1.17304046e+00
  1.17861954e+00  1.18235095e+00  1.18767091e+00  1.19372435e+00
  1.19771561e+00  1.20475359e+00  1.21127722e+00  1.21717163e+00
  1.21941403e+00  1.22574935e+00  1.22983552e+00  1.23949222e+00
  1.24522587e+00  1.25029046e+00  1.25563604e+00  1.26214407e+00
  1.27067288e+00  1.27890202e+00  1.28096239e+00  1.28710929e+00
  1.29330179e+00  1.29620394e+00  1.30263145e+00  1.30911103e+00
  1.31074729e+00  1.31305343e+00  1.32068522e+00  1.32472579e+00
  1.32779301e+00  1.33070495e+00  1.33678860e+00  1.33880811e+00
  1.34849807e+00  1.35344098e+00  1.35624877e+00  1.36669219e+00
  1.37128745e+00  1.37477205e+00  1.37897968e+00  1.39675055e+00
  1.39909960e+00  1.40415889e+00  1.41303809e+00  1.41473656e+00
  1.42030164e+00  1.42436559e+00  1.43030192e+00  1.43870236e+00
  1.44089630e+00  1.44721555e+00  1.44880672e+00  1.46085169e+00
  1.46501316e+00  1.46664167e+00  1.47064557e+00  1.47385191e+00
  1.47680946e+00  1.48094757e+00  1.48490092e+00  1.49465710e+00
  1.49852441e+00  1.50406598e+00  1.50661666e+00  1.51223684e+00
  1.51613978e+00  1.52005749e+00  1.52655962e+00  1.53423486e+00
  1.53799959e+00  1.54026353e+00  1.54105505e+00  1.54287044e+00
  1.54520219e+00  1.55039345e+00  1.55550212e+00  1.55722023e+00
  1.56060115e+00  1.56286586e+00  1.56526342e+00  1.56912449e+00
  1.57423590e+00  1.57783993e+00  1.57883816e+00  1.58308196e+00
  1.58568911e+00  1.59064949e+00  1.59362531e+00  1.59920622e+00
  1.60294351e+00  1.60554665e+00  1.60704303e+00  1.61152110e+00
  1.61306120e+00  1.61539031e+00  1.61746814e+00  1.62261653e+00
  1.63107738e+00  1.63312613e+00  1.63523248e+00  1.64241222e+00
  1.64564562e+00  1.64742446e+00  1.65286994e+00  1.65685873e+00
  1.66212239e+00  1.66604760e+00  1.66853404e+00  1.67272455e+00
  1.67756139e+00  1.67972782e+00  1.68589028e+00  1.68702146e+00
  1.69337412e+00  1.69961051e+00  1.70468841e+00  1.70707734e+00
  1.71578753e+00  1.72115050e+00  1.72686268e+00  1.73294945e+00
  1.73614435e+00  1.74129685e+00  1.74494219e+00  1.74750591e+00
  1.75165695e+00  1.75318936e+00  1.75348296e+00  1.75837015e+00
  1.76336316e+00  1.77215366e+00  1.77266444e+00  1.77977310e+00
  1.78190559e+00  1.78903972e+00  1.79304981e+00  1.79765896e+00
  1.80404816e+00  1.81211516e+00  1.81593786e+00  1.81747828e+00
  1.81983326e+00  1.82717995e+00  1.83146004e+00  1.83724966e+00
  1.84744860e+00  1.84868946e+00  1.86024999e+00  1.86250239e+00
  1.86505234e+00  1.87095403e+00  1.87826433e+00  1.87954452e+00
  1.88195164e+00  1.88446219e+00  1.89169680e+00  1.89885091e+00
  1.90405746e+00  1.90788182e+00  1.90942398e+00  1.91406022e+00
  1.92007866e+00  1.92048104e+00  1.92329976e+00  1.93302121e+00
  1.93422960e+00  1.93693385e+00  1.94031806e+00  1.94596280e+00
  1.95758562e+00  1.96098846e+00  1.96993407e+00  1.97191378e+00
  1.97425800e+00  1.98826219e+00  1.99692516e+00  1.99924011e+00
  2.00341387e+00  2.00887054e+00  2.01152750e+00  2.01696430e+00
  2.02255042e+00  2.02958923e+00  2.03346954e+00  2.03734031e+00
  2.04003711e+00  2.04550349e+00  2.04848266e+00  2.06127362e+00
  2.06260124e+00  2.06764383e+00  2.07565112e+00  2.07814690e+00
  2.08789629e+00  2.09161311e+00  2.09639763e+00  2.10059315e+00
  2.10640441e+00  2.11175754e+00  2.11359024e+00  2.12161557e+00
  2.13047854e+00  2.13272016e+00  2.13541204e+00  2.14483879e+00
  2.14932655e+00  2.15229153e+00  2.15978532e+00  2.16563518e+00
  2.16811638e+00  2.17352170e+00  2.17949406e+00  2.18665289e+00
  2.19369768e+00  2.19972216e+00  2.20301880e+00  2.20560019e+00
  2.21305327e+00  2.21457714e+00  2.21974367e+00  2.22098718e+00
  2.22898072e+00  2.23707671e+00  2.23779735e+00  2.24697332e+00
  2.25385232e+00  2.26054257e+00  2.26958344e+00  2.27862862e+00
  2.28097535e+00  2.29223020e+00  2.29893665e+00  2.30628414e+00
  2.30750532e+00  2.31472953e+00  2.31763758e+00  2.31997922e+00
  2.32525588e+00  2.33610508e+00  2.33929298e+00  2.34147921e+00
  2.34265982e+00  2.34306539e+00  2.34395520e+00  2.34680971e+00
  2.35790333e+00  2.35952607e+00  2.36384133e+00  2.36489735e+00
  2.36827150e+00  2.38357342e+00  2.38508393e+00  2.39075686e+00
  2.39320218e+00  2.39790132e+00  2.39934983e+00  2.40356204e+00
  2.40988230e+00  2.41740348e+00  2.41961828e+00  2.43039575e+00
  2.43418330e+00  2.43600768e+00  2.43759081e+00  2.44217030e+00
  2.44726106e+00  2.45457348e+00  2.45820578e+00  2.46411627e+00
  2.46740655e+00  2.46984278e+00  2.47985679e+00  2.48359815e+00
  2.48832023e+00  2.49176185e+00  2.49742606e+00  2.50388050e+00
  2.50680336e+00  2.50987173e+00  2.51732301e+00  2.52610028e+00
  2.52765289e+00  2.54010997e+00  2.54263173e+00  2.54736318e+00
  2.55096623e+00  2.55377135e+00  2.55999837e+00  2.56056950e+00
  2.56722343e+00  2.56846646e+00  2.56873491e+00  2.57205719e+00
  2.57385910e+00  2.57786562e+00  2.58666252e+00  2.58822638e+00
  2.59149000e+00  2.59269210e+00  2.59760921e+00  2.59970586e+00
  2.60248013e+00  2.60646496e+00  2.60868165e+00  2.61728092e+00
  2.62093416e+00  2.62717246e+00  2.63318734e+00  2.63729959e+00
  2.63983853e+00  2.64359381e+00  2.64760307e+00  2.65030449e+00
  2.65175102e+00  2.65529828e+00  2.65932392e+00  2.66199453e+00
  2.66457801e+00  2.66662088e+00  2.67018486e+00  2.68420107e+00
  2.68754579e+00  2.69131845e+00  2.69299333e+00  2.69421633e+00
  2.69678718e+00  2.70269249e+00  2.70471168e+00  2.70690829e+00
  2.71672392e+00  2.72068141e+00  2.72224768e+00  2.72549278e+00
  2.72876221e+00  2.73263082e+00  2.73420058e+00  2.73768843e+00
  2.73889448e+00  2.74620163e+00  2.74673091e+00  2.75324051e+00
  2.76177863e+00  2.76446349e+00  2.77338415e+00  2.77597960e+00
  2.78272523e+00  2.78655103e+00  2.78667765e+00  2.79187718e+00
  2.79710503e+00  2.80488108e+00  2.80835211e+00  2.81064890e+00
  2.81332033e+00  2.81861084e+00  2.82041376e+00  2.82699395e+00
  2.83063220e+00  2.83610637e+00  2.83743112e+00  2.84398204e+00
  2.84585341e+00  2.85764428e+00  2.86338700e+00  2.87277012e+00
  2.88293267e+00  2.88890850e+00  2.89583768e+00  2.90352121e+00
  2.90780590e+00  2.90842683e+00  2.91518735e+00  2.92449354e+00
  2.92884998e+00  2.93539218e+00  2.93573766e+00  2.94001799e+00
  2.94663950e+00  2.95011272e+00  2.95559067e+00  2.95709937e+00
  2.96188343e+00  2.96576986e+00  2.96956147e+00  2.97757126e+00
  2.98018565e+00  2.98223581e+00  2.98751545e+00  2.99528006e+00
  3.00270863e+00  3.00532351e+00  3.00937963e+00  3.01759720e+00
  3.02109855e+00  3.02616299e+00  3.03610223e+00  3.03819312e+00
  3.04223129e+00  3.04595125e+00  3.05173760e+00  3.05433397e+00
  3.05967858e+00  3.06456317e+00  3.06710615e+00  3.07390621e+00
  3.07811374e+00  3.08182251e+00  3.08575078e+00  3.08805836e+00
  3.09150121e+00  3.09761826e+00  3.10051810e+00  3.10624495e+00
  3.11198408e+00  3.11871516e+00  3.12077283e+00  3.12438585e+00
  3.12681048e+00  3.12932970e+00  3.13328384e+00  3.13618000e+00
  3.13947425e+00  3.14456494e+00  3.14797536e+00  3.15202245e+00
  3.15400448e+00  3.16247311e+00  3.16759918e+00  3.16885259e+00
  3.17234602e+00  3.17449346e+00  3.18264767e+00  3.18886683e+00
  3.19038572e+00  3.19361453e+00  3.20089630e+00  3.20289964e+00
  3.20930093e+00  3.21402468e+00  3.21735032e+00  3.22598252e+00
  3.22750689e+00  3.23043776e+00  3.23500103e+00  3.23774598e+00
  3.24186599e+00  3.25127652e+00  3.25268460e+00  3.26180597e+00
  3.26605517e+00  3.26761001e+00  3.27173566e+00  3.27378544e+00
  3.27545482e+00  3.27823353e+00  3.28464937e+00  3.28494822e+00
  3.29168722e+00  3.29419864e+00  3.29750254e+00  3.30191137e+00
  3.30397707e+00  3.31397684e+00  3.31790840e+00  3.31922176e+00
  3.32552853e+00  3.32957493e+00  3.33262899e+00  3.33377105e+00
  3.33736253e+00  3.34253424e+00  3.34749481e+00  3.34845030e+00
  3.35385611e+00  3.35629757e+00  3.36025866e+00  3.36341452e+00
  3.36673381e+00  3.37085995e+00  3.37558032e+00  3.37649620e+00
  3.38361283e+00  3.38676424e+00  3.39227422e+00  3.39388235e+00
  3.39929529e+00  3.40244440e+00  3.40421180e+00  3.40630950e+00
  3.41186087e+00  3.41650275e+00  3.41988545e+00  3.42315832e+00
  3.42753727e+00  3.43253592e+00  3.43346065e+00  3.44158682e+00
  3.44544228e+00  3.44708496e+00  3.44841502e+00  3.44974048e+00
  3.45396127e+00  3.46098009e+00  3.46311992e+00  3.47136594e+00
  3.47321571e+00  3.47674687e+00  3.48067819e+00  3.48166143e+00
  3.48590542e+00  3.49380405e+00  3.49592719e+00  3.50111827e+00
  3.50255202e+00  3.50702114e+00  3.50970243e+00  3.51118481e+00
  3.51867571e+00  3.52090843e+00  3.52678916e+00  3.53003131e+00
  3.53695225e+00  3.53809405e+00  3.55589997e+00  3.56601023e+00
  3.56742954e+00  3.56883755e+00  3.57196289e+00  3.57997805e+00
  3.58123661e+00  3.58232200e+00  3.59327242e+00  3.59512636e+00
  3.59692023e+00  3.60189347e+00  3.60611134e+00  3.61826896e+00
  3.61928326e+00  3.62751202e+00  3.63310012e+00  3.63813058e+00
  3.64678256e+00  3.65133404e+00  3.65358850e+00  3.65820346e+00
  3.66456256e+00  3.67102333e+00  3.68346334e+00  3.68933723e+00
  3.70308698e+00  3.71056167e+00  3.71570079e+00  3.72461456e+00
  3.73517467e+00  3.74155959e+00  3.74533458e+00  3.74863229e+00
  3.76157511e+00  3.76483369e+00  3.77162809e+00  3.77672501e+00
  3.78053171e+00  3.78841821e+00  3.80223282e+00  3.81188914e+00
  3.82314335e+00  3.82747429e+00  3.83504331e+00  3.84122474e+00
  3.84357564e+00  3.85226230e+00  3.86095863e+00  3.87553799e+00
  3.88791757e+00  3.89526905e+00  3.90032229e+00  3.90750814e+00
  3.92007221e+00  3.92098649e+00  3.92370019e+00  3.92541318e+00
  3.92745527e+00  3.93129499e+00  3.93579176e+00  3.94614326e+00
  3.95335627e+00  3.95770391e+00  3.96937127e+00  3.97760644e+00
  3.98395516e+00  3.99070324e+00  3.99424292e+00  3.99810111e+00
  4.00045291e+00  4.01223015e+00  4.03059595e+00  4.05335966e+00
  4.05975867e+00  4.06109312e+00  4.06907875e+00  4.07973160e+00
  4.08803290e+00  4.10047073e+00  4.11230847e+00  4.11724493e+00
  4.11992262e+00  4.12481620e+00  4.12768321e+00  4.13921054e+00
  4.14441781e+00  4.14578558e+00  4.15128832e+00  4.15721998e+00
  4.16058337e+00  4.17325308e+00  4.17678240e+00  4.18638360e+00
  4.20663849e+00  4.21358652e+00  4.22347085e+00  4.22866428e+00
  4.23743144e+00  4.24975319e+00  4.25660658e+00  4.26323738e+00
  4.26663412e+00  4.27424671e+00  4.29830268e+00  4.30733619e+00
  4.30911460e+00  4.31539817e+00  4.32229060e+00  4.32912496e+00
  4.33582143e+00  4.35037179e+00  4.35830809e+00  4.35899616e+00
  4.36531638e+00  4.38935654e+00  4.40046162e+00  4.41392374e+00
  4.43787287e+00  4.44520528e+00  4.46153449e+00  4.46559018e+00
  4.47090634e+00  4.47780277e+00  4.49596067e+00  4.50563134e+00
  4.51062534e+00  4.52093774e+00  4.52437189e+00  4.53931984e+00
  4.54358976e+00  4.54559704e+00  4.55314462e+00  4.55561114e+00
  4.56447154e+00  4.56755230e+00  4.58332838e+00  4.58645303e+00
  4.59527684e+00  4.59956757e+00  4.60502850e+00  4.62016821e+00
  4.62884018e+00  4.64225649e+00  4.64800826e+00  4.66933489e+00
  4.68355354e+00  4.68764885e+00  4.69294475e+00  4.70888531e+00
  4.73415474e+00  4.73884251e+00  4.75799544e+00  4.76939845e+00
  4.77186643e+00  4.77709004e+00  4.81321892e+00  4.81738203e+00
  4.83353193e+00  4.83858749e+00  4.86596572e+00  4.86849533e+00
  4.88477368e+00  4.89789878e+00  4.90416609e+00  4.90760863e+00
  4.92437841e+00  4.93354507e+00  4.94950110e+00  4.95680995e+00
  4.96833976e+00  4.99425266e+00  5.00143181e+00  5.01269725e+00
  5.03996862e+00  5.05800515e+00  5.06536059e+00  5.07397890e+00
  5.07995948e+00  5.08977218e+00  5.09908742e+00  5.10430570e+00
  5.11864338e+00  5.12620345e+00  5.12801111e+00  5.13040666e+00
  5.13098582e+00  5.13385421e+00  5.14131515e+00  5.15783312e+00
  5.17202908e+00  5.17644070e+00  5.18384871e+00  5.18619383e+00
  5.19152646e+00  5.19747803e+00  5.20389381e+00  5.21290502e+00
  5.22086509e+00  5.23898925e+00  5.24138704e+00  5.24430289e+00
  5.24616131e+00  5.25389526e+00  5.26591566e+00  5.26948263e+00
  5.27661130e+00  5.29191949e+00  5.29306403e+00  5.30276353e+00
  5.31622457e+00  5.34331904e+00  5.34463197e+00  5.36876803e+00
  5.37131488e+00  5.39594359e+00  5.40572114e+00  5.41691747e+00
  5.43634547e+00  5.44935353e+00  5.45666011e+00  5.46428556e+00
  5.47441115e+00  5.48756450e+00  5.51549792e+00  5.51950922e+00
  5.54948234e+00  5.56269914e+00  5.58216353e+00  5.59289925e+00
  5.60431647e+00  5.60519606e+00  5.61111645e+00  5.63738688e+00
  5.64034918e+00  5.64420605e+00  5.68203964e+00  5.70313910e+00
  5.73350130e+00  5.75565993e+00  5.76214975e+00  5.78505836e+00
  5.79798466e+00  5.81006406e+00  5.84011274e+00  5.86618249e+00
  5.87936724e+00  5.92248830e+00  5.96602746e+00  5.99054595e+00
  6.01258815e+00  6.07154888e+00  6.08625933e+00  6.08848281e+00
  6.10885534e+00  6.13903140e+00  6.22724380e+00  6.26837415e+00
  6.28429125e+00  6.31028129e+00  6.33003140e+00  6.36738940e+00
  6.37165223e+00  6.37767855e+00  6.40413598e+00  6.41644007e+00
  6.42711430e+00  6.43265791e+00  6.44011793e+00  6.46214580e+00
  6.51516829e+00  6.55466952e+00  6.65709107e+00  6.65936897e+00
  6.68385065e+00  6.69209363e+00  6.70583149e+00  6.73453879e+00
  6.74081529e+00  6.76040826e+00  6.76759625e+00  6.77692200e+00
  6.79261849e+00  6.79879020e+00  6.84208868e+00  6.86238788e+00
  6.86782170e+00  6.86905398e+00  6.87143890e+00  6.87389604e+00
  6.92012904e+00  6.98250317e+00  7.09229226e+00  7.11544959e+00
  7.12456762e+00  7.14896751e+00  7.19422173e+00  7.23778517e+00
  7.31805278e+00  7.33081370e+00  7.43001028e+00  9.21645037e+00
  9.41642498e+00  9.60808930e+00  2.17056715e+01  2.22625829e+01
  2.23539387e+01  2.23550441e+01  2.23721375e+01  2.24702856e+01
  2.24719868e+01  2.24937964e+01  2.25425575e+01  2.25526672e+01
  2.25767024e+01  2.26091923e+01  2.26283183e+01  2.26451394e+01
  2.26688182e+01  2.26964259e+01  2.27183540e+01  2.27956596e+01
  2.28065166e+01  2.28851733e+01  2.29079725e+01  2.31218026e+01
  2.32957922e+01  2.33710582e+01  2.35217003e+01  2.35762164e+01
  2.37742628e+01  3.30422132e+01  3.31521128e+01  3.31649966e+01
  4.34756018e+01  4.36965599e+01  4.37809207e+01  4.41017897e+01
  4.41357128e+01  4.41712509e+01  4.44159815e+01]
nelec by numeric integration = 282.00026817489163
    CPU time for vxc    231.16 sec, wall time     15.76 sec
    CPU time for df vj and vk    992.23 sec, wall time     76.71 sec
E1 = -10730.306119510307  Ecoul = 4936.816142963573  Exc = -258.0696163178942
cycle= 1 E= -2098.28001167785  delta_E= -4.53e-05  |g|= 6.07e-05  |ddm|= 0.0123
    CPU time for cycle= 1   1231.45 sec, wall time     93.57 sec
  HOMO = -0.209134211423101  LUMO = -0.0902904638393786
  mo_energy =
[-8.92620760e+01 -1.93137973e+01 -1.92879892e+01 -1.92376362e+01
 -1.92348985e+01 -1.91742351e+01 -1.91718610e+01 -1.91687482e+01
 -1.44870724e+01 -1.44278349e+01 -1.44277609e+01 -1.03726809e+01
 -1.03564109e+01 -1.03300866e+01 -1.03273784e+01 -1.03269383e+01
 -1.03223271e+01 -1.03134663e+01 -1.03063314e+01 -1.02816164e+01
 -1.02733641e+01 -1.02703722e+01 -1.02649338e+01 -1.02631771e+01
 -1.02609777e+01 -1.02520746e+01 -1.02485974e+01 -1.02449492e+01
 -1.02443344e+01 -1.02351372e+01 -1.02266052e+01 -1.02126022e+01
 -1.02116443e+01 -1.02088133e+01 -1.02082774e+01 -1.02041428e+01
 -1.02032819e+01 -8.20787507e+00 -6.14625542e+00 -6.14300771e+00
 -6.14263689e+00 -1.19142547e+00 -1.18261909e+00 -1.09144602e+00
 -1.08413940e+00 -1.05904350e+00 -1.05756483e+00 -1.05617755e+00
 -1.03634912e+00 -9.65385443e-01 -9.42257354e-01 -9.20145555e-01
 -8.80352415e-01 -8.62827085e-01 -8.37535903e-01 -8.17735616e-01
 -8.13913449e-01 -8.05311384e-01 -8.04160303e-01 -7.94379027e-01
 -7.60350272e-01 -7.42614976e-01 -7.32141670e-01 -7.23217910e-01
 -6.98230864e-01 -6.84550982e-01 -6.72170113e-01 -6.62758969e-01
 -6.61962802e-01 -6.55944771e-01 -6.45092782e-01 -6.21115817e-01
 -6.11467164e-01 -5.94991427e-01 -5.90414462e-01 -5.87767652e-01
 -5.85955159e-01 -5.80511295e-01 -5.76440425e-01 -5.53171602e-01
 -5.46953655e-01 -5.41583583e-01 -5.40869348e-01 -5.31867903e-01
 -5.15796744e-01 -5.06783634e-01 -5.02390939e-01 -4.94221541e-01
 -4.90937446e-01 -4.87017845e-01 -4.82025491e-01 -4.81173658e-01
 -4.78661940e-01 -4.74254973e-01 -4.70465603e-01 -4.68108510e-01
 -4.62381975e-01 -4.56319869e-01 -4.48191103e-01 -4.47553788e-01
 -4.42387902e-01 -4.38276728e-01 -4.34486168e-01 -4.25695675e-01
 -4.24152192e-01 -4.16692375e-01 -4.14128346e-01 -4.10823404e-01
 -4.09617202e-01 -4.08868708e-01 -4.06923966e-01 -4.05382218e-01
 -4.03129410e-01 -4.02566866e-01 -3.97391454e-01 -3.92725540e-01
 -3.85501373e-01 -3.82551346e-01 -3.80034059e-01 -3.78034193e-01
 -3.65748306e-01 -3.58997154e-01 -3.55542796e-01 -3.53403749e-01
 -3.52388030e-01 -3.50032313e-01 -3.47696429e-01 -3.46903206e-01
 -3.37490711e-01 -3.36605429e-01 -3.24584462e-01 -3.23819602e-01
 -3.11230453e-01 -2.99773846e-01 -2.93592361e-01 -2.85139276e-01
 -2.79038923e-01 -2.70060691e-01 -2.64053972e-01 -2.57064619e-01
 -2.09134211e-01 -9.02904638e-02 -4.08836863e-02 -2.84546789e-02
 -4.85701841e-03  5.87918568e-04  1.20341882e-02  1.98204722e-02
  2.65952359e-02  3.02795152e-02  3.77988403e-02  4.07908160e-02
  4.30274009e-02  4.93320274e-02  5.31491414e-02  5.83944476e-02
  6.11766271e-02  6.30594934e-02  6.85458060e-02  7.23325734e-02
  7.33478409e-02  7.54585759e-02  7.74946003e-02  8.41814967e-02
  8.73506194e-02  8.98328306e-02  9.12553169e-02  9.32675827e-02
  9.58628197e-02  9.99215100e-02  1.01305709e-01  1.08148205e-01
  1.12507283e-01  1.16351700e-01  1.22116772e-01  1.23125128e-01
  1.24068211e-01  1.29099484e-01  1.30421191e-01  1.34163668e-01
  1.39026723e-01  1.40523428e-01  1.41017154e-01  1.44872959e-01
  1.45324584e-01  1.49012243e-01  1.50470072e-01  1.54167517e-01
  1.55112954e-01  1.58317725e-01  1.60250060e-01  1.63579802e-01
  1.65381252e-01  1.67872392e-01  1.70505947e-01  1.73205762e-01
  1.76999077e-01  1.80049229e-01  1.81614217e-01  1.83507499e-01
  1.86309454e-01  1.91222835e-01  1.95436755e-01  2.01622791e-01
  2.05222573e-01  2.07399639e-01  2.12241615e-01  2.14440398e-01
  2.15135345e-01  2.17986194e-01  2.20247336e-01  2.23015616e-01
  2.24899743e-01  2.28603173e-01  2.30786893e-01  2.34595986e-01
  2.37514293e-01  2.41867115e-01  2.45357385e-01  2.47486238e-01
  2.48062336e-01  2.52682757e-01  2.55790715e-01  2.57120085e-01
  2.60036188e-01  2.60995291e-01  2.63524262e-01  2.67834460e-01
  2.70122871e-01  2.74409559e-01  2.74742320e-01  2.79301078e-01
  2.81400463e-01  2.85346694e-01  2.91268463e-01  2.93943255e-01
  2.95300669e-01  2.98334320e-01  2.99927213e-01  3.02353891e-01
  3.05006198e-01  3.08215311e-01  3.09281999e-01  3.13775624e-01
  3.17452981e-01  3.19624874e-01  3.22084561e-01  3.26606780e-01
  3.29322175e-01  3.31143629e-01  3.33150950e-01  3.37854185e-01
  3.40104533e-01  3.44264953e-01  3.46616374e-01  3.49597745e-01
  3.54152059e-01  3.54710770e-01  3.57175701e-01  3.59438534e-01
  3.61752090e-01  3.63402133e-01  3.69349098e-01  3.72167700e-01
  3.75630713e-01  3.76581620e-01  3.79316163e-01  3.80799338e-01
  3.85333209e-01  3.86175247e-01  3.88602696e-01  3.89238349e-01
  3.93075433e-01  3.96546103e-01  3.98252963e-01  3.98620187e-01
  4.02489551e-01  4.09634867e-01  4.12014440e-01  4.15887008e-01
  4.17093889e-01  4.19524928e-01  4.20699966e-01  4.23815963e-01
  4.25575050e-01  4.27586151e-01  4.31704996e-01  4.36303049e-01
  4.38419525e-01  4.40592606e-01  4.42153987e-01  4.44387262e-01
  4.47051464e-01  4.50927884e-01  4.53119859e-01  4.56629145e-01
  4.58591298e-01  4.62080833e-01  4.64697463e-01  4.69101922e-01
  4.70857317e-01  4.71859537e-01  4.73366722e-01  4.75619686e-01
  4.77084096e-01  4.77868620e-01  4.79231467e-01  4.80108493e-01
  4.82200331e-01  4.83678274e-01  4.84588222e-01  4.86070075e-01
  4.86920854e-01  4.90655064e-01  4.94000326e-01  4.99575117e-01
  5.00898620e-01  5.03088556e-01  5.03477927e-01  5.08851286e-01
  5.10501668e-01  5.11614695e-01  5.15395848e-01  5.18340809e-01
  5.20321688e-01  5.25555723e-01  5.33055335e-01  5.34536245e-01
  5.41665837e-01  5.42632645e-01  5.45203880e-01  5.48935391e-01
  5.53973575e-01  5.54821242e-01  5.57004093e-01  5.61806949e-01
  5.65707394e-01  5.71121091e-01  5.73100746e-01  5.79358688e-01
  5.82308670e-01  5.84350762e-01  5.88949147e-01  5.92328954e-01
  5.94050288e-01  5.96091925e-01  5.97048269e-01  6.00012138e-01
  6.06061022e-01  6.08766232e-01  6.10333832e-01  6.15547276e-01
  6.17304317e-01  6.18388770e-01  6.26933996e-01  6.28185057e-01
  6.29150805e-01  6.32341205e-01  6.36307774e-01  6.42414199e-01
  6.45230132e-01  6.47335775e-01  6.53519093e-01  6.59504583e-01
  6.60028327e-01  6.65386564e-01  6.68500133e-01  6.69509749e-01
  6.72312776e-01  6.73991923e-01  6.75826614e-01  6.82387252e-01
  6.87469780e-01  6.88251109e-01  6.90636988e-01  6.95596669e-01
  7.01873622e-01  7.03319710e-01  7.04719330e-01  7.08441991e-01
  7.10227632e-01  7.13954913e-01  7.16338939e-01  7.20295155e-01
  7.22459754e-01  7.24279398e-01  7.28969817e-01  7.29802121e-01
  7.33591477e-01  7.39811099e-01  7.40474440e-01  7.46953634e-01
  7.51224393e-01  7.52758377e-01  7.61298710e-01  7.68563527e-01
  7.72356478e-01  7.78772974e-01  7.80344691e-01  7.84866378e-01
  7.93866286e-01  8.02526915e-01  8.03331432e-01  8.11377197e-01
  8.13374440e-01  8.20413799e-01  8.25218290e-01  8.26433877e-01
  8.30237815e-01  8.31673747e-01  8.36113830e-01  8.38792266e-01
  8.45471776e-01  8.47105871e-01  8.53113030e-01  8.54947407e-01
  8.55067809e-01  8.58829232e-01  8.59836884e-01  8.63648911e-01
  8.68390015e-01  8.70350143e-01  8.71423839e-01  8.76009638e-01
  8.76548928e-01  8.80770692e-01  8.81846314e-01  8.92126762e-01
  8.94398671e-01  8.99464553e-01  9.01926661e-01  9.05816540e-01
  9.08639611e-01  9.11929771e-01  9.19828797e-01  9.27092727e-01
  9.32911279e-01  9.36901063e-01  9.45848782e-01  9.52729111e-01
  9.57568022e-01  9.60347462e-01  9.69976442e-01  9.72246860e-01
  9.74810585e-01  9.77767937e-01  9.89631170e-01  9.99010502e-01
  1.00273822e+00  1.00601675e+00  1.01185507e+00  1.01426283e+00
  1.02419123e+00  1.02966391e+00  1.03450746e+00  1.03623861e+00
  1.04039010e+00  1.04167853e+00  1.04761559e+00  1.05656837e+00
  1.06011158e+00  1.06190307e+00  1.06950011e+00  1.07473461e+00
  1.08117822e+00  1.08473126e+00  1.09670323e+00  1.09742510e+00
  1.10312968e+00  1.10742471e+00  1.11097235e+00  1.11740084e+00
  1.11995211e+00  1.12165717e+00  1.12388417e+00  1.12939122e+00
  1.13364658e+00  1.14149196e+00  1.14372075e+00  1.14745676e+00
  1.15081884e+00  1.15422655e+00  1.15867533e+00  1.16064032e+00
  1.16261994e+00  1.16573957e+00  1.16993622e+00  1.17304070e+00
  1.17861946e+00  1.18235118e+00  1.18767208e+00  1.19372465e+00
  1.19771612e+00  1.20475372e+00  1.21127704e+00  1.21717275e+00
  1.21941481e+00  1.22574998e+00  1.22983493e+00  1.23949347e+00
  1.24522523e+00  1.25029050e+00  1.25563606e+00  1.26214420e+00
  1.27067330e+00  1.27890231e+00  1.28096251e+00  1.28710863e+00
  1.29330192e+00  1.29620407e+00  1.30263144e+00  1.30911128e+00
  1.31074659e+00  1.31305318e+00  1.32068508e+00  1.32472523e+00
  1.32779332e+00  1.33070497e+00  1.33678767e+00  1.33880779e+00
  1.34849862e+00  1.35344170e+00  1.35624929e+00  1.36669227e+00
  1.37128770e+00  1.37477285e+00  1.37898007e+00  1.39675109e+00
  1.39910019e+00  1.40415751e+00  1.41303864e+00  1.41473632e+00
  1.42030184e+00  1.42436712e+00  1.43030192e+00  1.43870285e+00
  1.44089635e+00  1.44721670e+00  1.44880771e+00  1.46085119e+00
  1.46501199e+00  1.46664245e+00  1.47064618e+00  1.47385197e+00
  1.47680857e+00  1.48094743e+00  1.48490036e+00  1.49465708e+00
  1.49852296e+00  1.50406644e+00  1.50661514e+00  1.51223742e+00
  1.51614003e+00  1.52005797e+00  1.52655992e+00  1.53423448e+00
  1.53800043e+00  1.54026334e+00  1.54105488e+00  1.54287077e+00
  1.54520146e+00  1.55039333e+00  1.55550243e+00  1.55721991e+00
  1.56060098e+00  1.56286567e+00  1.56526446e+00  1.56912354e+00
  1.57423615e+00  1.57784043e+00  1.57883867e+00  1.58308148e+00
  1.58568987e+00  1.59064992e+00  1.59362466e+00  1.59920649e+00
  1.60294465e+00  1.60554638e+00  1.60704294e+00  1.61152104e+00
  1.61306122e+00  1.61539031e+00  1.61746796e+00  1.62261659e+00
  1.63107768e+00  1.63312555e+00  1.63523284e+00  1.64241196e+00
  1.64564617e+00  1.64742423e+00  1.65287043e+00  1.65685886e+00
  1.66212211e+00  1.66604810e+00  1.66853496e+00  1.67272483e+00
  1.67756127e+00  1.67972774e+00  1.68588946e+00  1.68702141e+00
  1.69337470e+00  1.69960933e+00  1.70468869e+00  1.70707779e+00
  1.71578811e+00  1.72115009e+00  1.72686254e+00  1.73294918e+00
  1.73614441e+00  1.74129708e+00  1.74494293e+00  1.74750543e+00
  1.75165678e+00  1.75318842e+00  1.75348434e+00  1.75837006e+00
  1.76336321e+00  1.77215408e+00  1.77266435e+00  1.77977273e+00
  1.78190504e+00  1.78904007e+00  1.79304938e+00  1.79765772e+00
  1.80404878e+00  1.81211439e+00  1.81593824e+00  1.81747902e+00
  1.81983445e+00  1.82718046e+00  1.83146007e+00  1.83725068e+00
  1.84744969e+00  1.84868943e+00  1.86025038e+00  1.86250186e+00
  1.86505200e+00  1.87095438e+00  1.87826391e+00  1.87954441e+00
  1.88195175e+00  1.88446242e+00  1.89169727e+00  1.89885066e+00
  1.90405722e+00  1.90788083e+00  1.90942363e+00  1.91405998e+00
  1.92007888e+00  1.92048141e+00  1.92329987e+00  1.93302083e+00
  1.93423026e+00  1.93693347e+00  1.94031914e+00  1.94596253e+00
  1.95758631e+00  1.96098943e+00  1.96993472e+00  1.97191348e+00
  1.97425797e+00  1.98826296e+00  1.99692590e+00  1.99924093e+00
  2.00341317e+00  2.00887101e+00  2.01152708e+00  2.01696414e+00
  2.02255098e+00  2.02958888e+00  2.03346899e+00  2.03733922e+00
  2.04003655e+00  2.04550386e+00  2.04848336e+00  2.06127399e+00
  2.06260129e+00  2.06764434e+00  2.07565108e+00  2.07814790e+00
  2.08789654e+00  2.09161307e+00  2.09639743e+00  2.10059423e+00
  2.10640428e+00  2.11175690e+00  2.11358967e+00  2.12161565e+00
  2.13047898e+00  2.13272088e+00  2.13541162e+00  2.14483966e+00
  2.14932657e+00  2.15229178e+00  2.15978586e+00  2.16563498e+00
  2.16811600e+00  2.17352106e+00  2.17949522e+00  2.18665225e+00
  2.19369892e+00  2.19972253e+00  2.20301802e+00  2.20560026e+00
  2.21305340e+00  2.21457773e+00  2.21974329e+00  2.22098761e+00
  2.22898006e+00  2.23707810e+00  2.23779748e+00  2.24697184e+00
  2.25385348e+00  2.26054170e+00  2.26958402e+00  2.27862982e+00
  2.28097448e+00  2.29222903e+00  2.29893759e+00  2.30628504e+00
  2.30750430e+00  2.31472999e+00  2.31763745e+00  2.31997887e+00
  2.32525524e+00  2.33610415e+00  2.33929304e+00  2.34147971e+00
  2.34265978e+00  2.34306518e+00  2.34395520e+00  2.34681100e+00
  2.35790362e+00  2.35952582e+00  2.36384090e+00  2.36489640e+00
  2.36827164e+00  2.38357500e+00  2.38508343e+00  2.39075614e+00
  2.39320291e+00  2.39790179e+00  2.39934994e+00  2.40356138e+00
  2.40988304e+00  2.41740272e+00  2.41961945e+00  2.43039675e+00
  2.43418369e+00  2.43600761e+00  2.43759055e+00  2.44217017e+00
  2.44726028e+00  2.45457302e+00  2.45820498e+00  2.46411577e+00
  2.46740759e+00  2.46984193e+00  2.47985851e+00  2.48359925e+00
  2.48832050e+00  2.49176262e+00  2.49742576e+00  2.50388183e+00
  2.50680342e+00  2.50987151e+00  2.51732282e+00  2.52610031e+00
  2.52765281e+00  2.54011118e+00  2.54263154e+00  2.54736362e+00
  2.55096550e+00  2.55377222e+00  2.55999840e+00  2.56056880e+00
  2.56722303e+00  2.56846636e+00  2.56873479e+00  2.57205722e+00
  2.57385911e+00  2.57786640e+00  2.58666273e+00  2.58822675e+00
  2.59148987e+00  2.59269237e+00  2.59760929e+00  2.59970631e+00
  2.60248042e+00  2.60646578e+00  2.60868216e+00  2.61728158e+00
  2.62093458e+00  2.62717328e+00  2.63318816e+00  2.63729905e+00
  2.63983912e+00  2.64359421e+00  2.64760352e+00  2.65030362e+00
  2.65175181e+00  2.65529806e+00  2.65932350e+00  2.66199392e+00
  2.66457808e+00  2.66662111e+00  2.67018415e+00  2.68420112e+00
  2.68754629e+00  2.69131955e+00  2.69299445e+00  2.69421585e+00
  2.69678762e+00  2.70269294e+00  2.70471229e+00  2.70690888e+00
  2.71672409e+00  2.72068079e+00  2.72224788e+00  2.72549263e+00
  2.72876151e+00  2.73263099e+00  2.73420044e+00  2.73768797e+00
  2.73889407e+00  2.74620218e+00  2.74673149e+00  2.75324115e+00
  2.76177880e+00  2.76446305e+00  2.77338393e+00  2.77597913e+00
  2.78272469e+00  2.78655148e+00  2.78667797e+00  2.79187703e+00
  2.79710461e+00  2.80488180e+00  2.80835124e+00  2.81064955e+00
  2.81331951e+00  2.81861058e+00  2.82041469e+00  2.82699356e+00
  2.83063303e+00  2.83610573e+00  2.83743221e+00  2.84398325e+00
  2.84585254e+00  2.85764557e+00  2.86338584e+00  2.87276896e+00
  2.88293232e+00  2.88890943e+00  2.89583777e+00  2.90352255e+00
  2.90780505e+00  2.90842578e+00  2.91518757e+00  2.92449343e+00
  2.92885025e+00  2.93539165e+00  2.93573676e+00  2.94001720e+00
  2.94663875e+00  2.95011219e+00  2.95559077e+00  2.95709956e+00
  2.96188375e+00  2.96577010e+00  2.96956081e+00  2.97757205e+00
  2.98018527e+00  2.98223404e+00  2.98751535e+00  2.99528060e+00
  3.00270902e+00  3.00532301e+00  3.00937943e+00  3.01759662e+00
  3.02109918e+00  3.02616308e+00  3.03610155e+00  3.03819316e+00
  3.04223093e+00  3.04595001e+00  3.05173790e+00  3.05433375e+00
  3.05967790e+00  3.06456281e+00  3.06710726e+00  3.07390523e+00
  3.07811421e+00  3.08182224e+00  3.08575122e+00  3.08805858e+00
  3.09150206e+00  3.09761847e+00  3.10051754e+00  3.10624432e+00
  3.11198443e+00  3.11871589e+00  3.12077267e+00  3.12438667e+00
  3.12681018e+00  3.12933070e+00  3.13328387e+00  3.13618135e+00
  3.13947364e+00  3.14456438e+00  3.14797550e+00  3.15202220e+00
  3.15400455e+00  3.16247324e+00  3.16759950e+00  3.16885259e+00
  3.17234663e+00  3.17449269e+00  3.18264763e+00  3.18886696e+00
  3.19038599e+00  3.19361503e+00  3.20089653e+00  3.20289924e+00
  3.20930149e+00  3.21402534e+00  3.21735100e+00  3.22598364e+00
  3.22750783e+00  3.23043808e+00  3.23500120e+00  3.23774636e+00
  3.24186556e+00  3.25127655e+00  3.25268601e+00  3.26180601e+00
  3.26605472e+00  3.26760949e+00  3.27173559e+00  3.27378532e+00
  3.27545532e+00  3.27823374e+00  3.28465015e+00  3.28494878e+00
  3.29168701e+00  3.29419959e+00  3.29750302e+00  3.30191088e+00
  3.30397732e+00  3.31397648e+00  3.31790817e+00  3.31922139e+00
  3.32552865e+00  3.32957625e+00  3.33262814e+00  3.33377217e+00
  3.33736326e+00  3.34253463e+00  3.34749518e+00  3.34844948e+00
  3.35385655e+00  3.35629690e+00  3.36025854e+00  3.36341612e+00
  3.36673499e+00  3.37086072e+00  3.37558167e+00  3.37649622e+00
  3.38361382e+00  3.38676372e+00  3.39227440e+00  3.39388187e+00
  3.39929587e+00  3.40244347e+00  3.40421144e+00  3.40631101e+00
  3.41185991e+00  3.41650263e+00  3.41988553e+00  3.42315818e+00
  3.42753672e+00  3.43253547e+00  3.43346181e+00  3.44158597e+00
  3.44544196e+00  3.44708459e+00  3.44841519e+00  3.44974114e+00
  3.45396117e+00  3.46097953e+00  3.46311946e+00  3.47136567e+00
  3.47321468e+00  3.47674632e+00  3.48067787e+00  3.48166202e+00
  3.48590612e+00  3.49380499e+00  3.49592827e+00  3.50111915e+00
  3.50255112e+00  3.50702164e+00  3.50970227e+00  3.51118444e+00
  3.51867606e+00  3.52090755e+00  3.52678889e+00  3.53003221e+00
  3.53695213e+00  3.53809440e+00  3.55589981e+00  3.56600972e+00
  3.56743005e+00  3.56883761e+00  3.57196326e+00  3.57997808e+00
  3.58123642e+00  3.58232167e+00  3.59327191e+00  3.59512574e+00
  3.59692040e+00  3.60189375e+00  3.60611139e+00  3.61826863e+00
  3.61928453e+00  3.62751247e+00  3.63310007e+00  3.63813134e+00
  3.64678207e+00  3.65133356e+00  3.65358941e+00  3.65820445e+00
  3.66456220e+00  3.67102220e+00  3.68346417e+00  3.68933825e+00
  3.70308744e+00  3.71056143e+00  3.71570119e+00  3.72461334e+00
  3.73517358e+00  3.74155973e+00  3.74533435e+00  3.74863175e+00
  3.76157484e+00  3.76483327e+00  3.77162869e+00  3.77672567e+00
  3.78053140e+00  3.78841933e+00  3.80223277e+00  3.81189014e+00
  3.82314331e+00  3.82747513e+00  3.83504311e+00  3.84122576e+00
  3.84357503e+00  3.85226164e+00  3.86096058e+00  3.87553668e+00
  3.88791671e+00  3.89526836e+00  3.90032312e+00  3.90750711e+00
  3.92007189e+00  3.92098631e+00  3.92370114e+00  3.92541306e+00
  3.92745586e+00  3.93129515e+00  3.93579184e+00  3.94614287e+00
  3.95335698e+00  3.95770465e+00  3.96937212e+00  3.97760718e+00
  3.98395550e+00  3.99070255e+00  3.99424264e+00  3.99810061e+00
  4.00045280e+00  4.01222984e+00  4.03059595e+00  4.05336035e+00
  4.05975912e+00  4.06109305e+00  4.06907846e+00  4.07973044e+00
  4.08803320e+00  4.10047061e+00  4.11230842e+00  4.11724477e+00
  4.11992250e+00  4.12481673e+00  4.12768264e+00  4.13920980e+00
  4.14441678e+00  4.14578645e+00  4.15128947e+00  4.15722040e+00
  4.16058455e+00  4.17325383e+00  4.17678109e+00  4.18638388e+00
  4.20663833e+00  4.21358737e+00  4.22347165e+00  4.22866507e+00
  4.23743255e+00  4.24975304e+00  4.25660621e+00  4.26323668e+00
  4.26663548e+00  4.27424722e+00  4.29830229e+00  4.30733610e+00
  4.30911596e+00  4.31539934e+00  4.32229065e+00  4.32912540e+00
  4.33582134e+00  4.35037206e+00  4.35830777e+00  4.35899526e+00
  4.36531574e+00  4.38935660e+00  4.40046120e+00  4.41392318e+00
  4.43787164e+00  4.44520635e+00  4.46153424e+00  4.46559002e+00
  4.47090809e+00  4.47780135e+00  4.49596017e+00  4.50563061e+00
  4.51062434e+00  4.52093903e+00  4.52437123e+00  4.53931962e+00
  4.54358941e+00  4.54559834e+00  4.55314447e+00  4.55561244e+00
  4.56447104e+00  4.56755377e+00  4.58332807e+00  4.58645312e+00
  4.59527783e+00  4.59956805e+00  4.60502857e+00  4.62016797e+00
  4.62883964e+00  4.64225582e+00  4.64800721e+00  4.66933570e+00
  4.68355324e+00  4.68764991e+00  4.69294434e+00  4.70888592e+00
  4.73415507e+00  4.73884088e+00  4.75799552e+00  4.76939726e+00
  4.77186663e+00  4.77708875e+00  4.81321902e+00  4.81737954e+00
  4.83353326e+00  4.83858871e+00  4.86596762e+00  4.86849450e+00
  4.88477392e+00  4.89789846e+00  4.90416922e+00  4.90760700e+00
  4.92437787e+00  4.93355234e+00  4.94950227e+00  4.95680910e+00
  4.96833785e+00  4.99425242e+00  5.00143250e+00  5.01269897e+00
  5.03996701e+00  5.05800594e+00  5.06536006e+00  5.07397823e+00
  5.07995822e+00  5.08976948e+00  5.09908705e+00  5.10430573e+00
  5.11864212e+00  5.12620413e+00  5.12801080e+00  5.13040589e+00
  5.13098563e+00  5.13385398e+00  5.14131556e+00  5.15783205e+00
  5.17202784e+00  5.17643873e+00  5.18384795e+00  5.18619513e+00
  5.19153186e+00  5.19747819e+00  5.20389433e+00  5.21290579e+00
  5.22086560e+00  5.23898954e+00  5.24138669e+00  5.24430241e+00
  5.24616141e+00  5.25389471e+00  5.26591629e+00  5.26948283e+00
  5.27661210e+00  5.29191799e+00  5.29306384e+00  5.30276315e+00
  5.31622543e+00  5.34331763e+00  5.34463055e+00  5.36876921e+00
  5.37131422e+00  5.39594390e+00  5.40571976e+00  5.41691597e+00
  5.43634805e+00  5.44935211e+00  5.45666200e+00  5.46428291e+00
  5.47441378e+00  5.48756373e+00  5.51549636e+00  5.51950904e+00
  5.54948487e+00  5.56269935e+00  5.58216174e+00  5.59289903e+00
  5.60431581e+00  5.60519451e+00  5.61111619e+00  5.63738537e+00
  5.64034807e+00  5.64420569e+00  5.68204328e+00  5.70314609e+00
  5.73350474e+00  5.75565967e+00  5.76214935e+00  5.78505569e+00
  5.79798251e+00  5.81006687e+00  5.84011047e+00  5.86618585e+00
  5.87937568e+00  5.92248629e+00  5.96603478e+00  5.99054434e+00
  6.01259338e+00  6.07154684e+00  6.08625777e+00  6.08848242e+00
  6.10885586e+00  6.13903731e+00  6.22724402e+00  6.26837407e+00
  6.28429040e+00  6.31027902e+00  6.33003013e+00  6.36738942e+00
  6.37165110e+00  6.37767880e+00  6.40413904e+00  6.41643893e+00
  6.42711424e+00  6.43266029e+00  6.44011999e+00  6.46214803e+00
  6.51516662e+00  6.55466742e+00  6.65709277e+00  6.65937117e+00
  6.68385256e+00  6.69209298e+00  6.70583166e+00  6.73453683e+00
  6.74081952e+00  6.76040819e+00  6.76759495e+00  6.77692128e+00
  6.79261963e+00  6.79879250e+00  6.84208846e+00  6.86238995e+00
  6.86782317e+00  6.86905307e+00  6.87144088e+00  6.87389814e+00
  6.92012829e+00  6.98250122e+00  7.09229288e+00  7.11545095e+00
  7.12456948e+00  7.14896916e+00  7.19422333e+00  7.23778614e+00
  7.31805278e+00  7.33081606e+00  7.43001268e+00  9.21645274e+00
  9.41642739e+00  9.60809154e+00  2.17056739e+01  2.22625829e+01
  2.23539388e+01  2.23550442e+01  2.23721398e+01  2.24702855e+01
  2.24719867e+01  2.24937986e+01  2.25425572e+01  2.25526668e+01
  2.25767029e+01  2.26091921e+01  2.26283186e+01  2.26451410e+01
  2.26688175e+01  2.26964251e+01  2.27183550e+01  2.27956562e+01
  2.28065174e+01  2.28851728e+01  2.29079716e+01  2.31217972e+01
  2.32957872e+01  2.33710592e+01  2.35216986e+01  2.35762124e+01
  2.37742585e+01  3.30422085e+01  3.31521138e+01  3.31649962e+01
  4.34755985e+01  4.36965563e+01  4.37809197e+01  4.41017946e+01
  4.41357167e+01  4.41712559e+01  4.44159837e+01]
nelec by numeric integration = 282.0002681914902
    CPU time for vxc    244.69 sec, wall time     17.67 sec
    CPU time for df vj and vk    969.69 sec, wall time     74.45 sec
E1 = -10730.3060612131  Ecoul = 4936.816074662055  Exc = -258.0696063136037
cycle= 2 E= -2098.28001167787  delta_E= -1.91e-11  |g|= 4.69e-05  |ddm|= 0.000216
    CPU time for cycle= 2   1224.57 sec, wall time     93.86 sec
  HOMO = -0.209134192874593  LUMO = -0.0902902302570648
  mo_energy =
[-8.92620793e+01 -1.93138002e+01 -1.92879843e+01 -1.92376379e+01
 -1.92348930e+01 -1.91742403e+01 -1.91718673e+01 -1.91687560e+01
 -1.44870818e+01 -1.44278276e+01 -1.44277541e+01 -1.03726900e+01
 -1.03564060e+01 -1.03300791e+01 -1.03273718e+01 -1.03269414e+01
 -1.03223304e+01 -1.03134724e+01 -1.03063338e+01 -1.02816189e+01
 -1.02733660e+01 -1.02703726e+01 -1.02649322e+01 -1.02631759e+01
 -1.02609811e+01 -1.02520697e+01 -1.02486010e+01 -1.02449479e+01
 -1.02443333e+01 -1.02351268e+01 -1.02266005e+01 -1.02126022e+01
 -1.02116443e+01 -1.02088126e+01 -1.02082769e+01 -1.02041428e+01
 -1.02032819e+01 -8.20787779e+00 -6.14625820e+00 -6.14301049e+00
 -6.14263966e+00 -1.19142954e+00 -1.18261917e+00 -1.09144411e+00
 -1.08413826e+00 -1.05904272e+00 -1.05756506e+00 -1.05617750e+00
 -1.03635504e+00 -9.65382747e-01 -9.42253738e-01 -9.20147557e-01
 -8.80354721e-01 -8.62827981e-01 -8.37533841e-01 -8.17737601e-01
 -8.13913008e-01 -8.05312762e-01 -8.04159663e-01 -7.94378946e-01
 -7.60349851e-01 -7.42614082e-01 -7.32140251e-01 -7.23219596e-01
 -6.98229814e-01 -6.84553784e-01 -6.72168359e-01 -6.62758547e-01
 -6.61961431e-01 -6.55944896e-01 -6.45094587e-01 -6.21113435e-01
 -6.11467112e-01 -5.94990681e-01 -5.90415155e-01 -5.87766784e-01
 -5.85954753e-01 -5.80511139e-01 -5.76441915e-01 -5.53170000e-01
 -5.46955362e-01 -5.41584825e-01 -5.40872321e-01 -5.31867898e-01
 -5.15796682e-01 -5.06782517e-01 -5.02393195e-01 -4.94222747e-01
 -4.90935940e-01 -4.87017505e-01 -4.82025620e-01 -4.81173356e-01
 -4.78664170e-01 -4.74254867e-01 -4.70465487e-01 -4.68109473e-01
 -4.62380268e-01 -4.56320309e-01 -4.48192346e-01 -4.47552703e-01
 -4.42388325e-01 -4.38278377e-01 -4.34486812e-01 -4.25694698e-01
 -4.24151298e-01 -4.16693588e-01 -4.14129140e-01 -4.10822828e-01
 -4.09616457e-01 -4.08867378e-01 -4.06922944e-01 -4.05381954e-01
 -4.03130209e-01 -4.02565883e-01 -3.97392813e-01 -3.92727248e-01
 -3.85500733e-01 -3.82550752e-01 -3.80035224e-01 -3.78033070e-01
 -3.65747976e-01 -3.58997138e-01 -3.55543075e-01 -3.53403050e-01
 -3.52387660e-01 -3.50031782e-01 -3.47695998e-01 -3.46902900e-01
 -3.37490343e-01 -3.36605092e-01 -3.24583955e-01 -3.23819154e-01
 -3.11230505e-01 -2.99773936e-01 -2.93593709e-01 -2.85139385e-01
 -2.79038283e-01 -2.70060620e-01 -2.64051656e-01 -2.57065000e-01
 -2.09134193e-01 -9.02902303e-02 -4.08848390e-02 -2.84560242e-02
 -4.85782640e-03  5.87786080e-04  1.20338148e-02  1.98233310e-02
  2.65941928e-02  3.02783052e-02  3.77979197e-02  4.07898925e-02
  4.30273981e-02  4.93320297e-02  5.31479907e-02  5.83945550e-02
  6.11768212e-02  6.30595250e-02  6.85452561e-02  7.23317414e-02
  7.33486628e-02  7.54576549e-02  7.74936816e-02  8.41805879e-02
  8.73511597e-02  8.98331930e-02  9.12545779e-02  9.32681125e-02
  9.58621157e-02  9.99208683e-02  1.01305472e-01  1.08149295e-01
  1.12507660e-01  1.16350550e-01  1.22115800e-01  1.23123904e-01
  1.24066760e-01  1.29099998e-01  1.30421811e-01  1.34162854e-01
  1.39027245e-01  1.40523342e-01  1.41016160e-01  1.44872916e-01
  1.45325051e-01  1.49013347e-01  1.50469812e-01  1.54168244e-01
  1.55113206e-01  1.58317078e-01  1.60250970e-01  1.63580741e-01
  1.65381719e-01  1.67871557e-01  1.70506427e-01  1.73205002e-01
  1.76998351e-01  1.80048582e-01  1.81613452e-01  1.83508010e-01
  1.86310002e-01  1.91223530e-01  1.95435712e-01  2.01623619e-01
  2.05221114e-01  2.07399890e-01  2.12242447e-01  2.14440695e-01
  2.15136174e-01  2.17985479e-01  2.20248110e-01  2.23016277e-01
  2.24899565e-01  2.28602642e-01  2.30787013e-01  2.34595125e-01
  2.37514208e-01  2.41866606e-01  2.45357074e-01  2.47487517e-01
  2.48062383e-01  2.52682606e-01  2.55791029e-01  2.57120425e-01
  2.60036248e-01  2.60997063e-01  2.63524844e-01  2.67835154e-01
  2.70122283e-01  2.74410096e-01  2.74742568e-01  2.79302180e-01
  2.81400815e-01  2.85347247e-01  2.91269341e-01  2.93943040e-01
  2.95301680e-01  2.98334330e-01  2.99927820e-01  3.02354060e-01
  3.05006202e-01  3.08215239e-01  3.09282436e-01  3.13775374e-01
  3.17453089e-01  3.19624303e-01  3.22084788e-01  3.26606591e-01
  3.29321993e-01  3.31142841e-01  3.33150599e-01  3.37854504e-01
  3.40104073e-01  3.44265212e-01  3.46616165e-01  3.49597245e-01
  3.54151921e-01  3.54711494e-01  3.57175804e-01  3.59438987e-01
  3.61752893e-01  3.63401930e-01  3.69349399e-01  3.72167532e-01
  3.75631324e-01  3.76581623e-01  3.79315841e-01  3.80799663e-01
  3.85332885e-01  3.86175044e-01  3.88603251e-01  3.89238097e-01
  3.93074867e-01  3.96546256e-01  3.98252767e-01  3.98619808e-01
  4.02489014e-01  4.09634974e-01  4.12014249e-01  4.15886689e-01
  4.17094064e-01  4.19524626e-01  4.20700295e-01  4.23816063e-01
  4.25574994e-01  4.27585811e-01  4.31705063e-01  4.36302951e-01
  4.38419008e-01  4.40592600e-01  4.42153705e-01  4.44387345e-01
  4.47051295e-01  4.50927604e-01  4.53119307e-01  4.56629126e-01
  4.58591008e-01  4.62081167e-01  4.64697399e-01  4.69101346e-01
  4.70857494e-01  4.71859165e-01  4.73366421e-01  4.75619435e-01
  4.77084031e-01  4.77868905e-01  4.79231422e-01  4.80108687e-01
  4.82200779e-01  4.83678073e-01  4.84588105e-01  4.86070446e-01
  4.86920901e-01  4.90655316e-01  4.94000586e-01  4.99575284e-01
  5.00898807e-01  5.03087808e-01  5.03477227e-01  5.08851441e-01
  5.10501849e-01  5.11614369e-01  5.15396412e-01  5.18341166e-01
  5.20323050e-01  5.25556017e-01  5.33055990e-01  5.34536611e-01
  5.41666459e-01  5.42632481e-01  5.45203598e-01  5.48935556e-01
  5.53973347e-01  5.54821617e-01  5.57002996e-01  5.61806265e-01
  5.65707644e-01  5.71121896e-01  5.73101456e-01  5.79358758e-01
  5.82309429e-01  5.84350976e-01  5.88948860e-01  5.92329789e-01
  5.94049953e-01  5.96092279e-01  5.97049069e-01  6.00012519e-01
  6.06061304e-01  6.08766481e-01  6.10334221e-01  6.15547477e-01
  6.17303325e-01  6.18388708e-01  6.26934354e-01  6.28185898e-01
  6.29151478e-01  6.32341166e-01  6.36307234e-01  6.42413452e-01
  6.45229160e-01  6.47335898e-01  6.53519670e-01  6.59505246e-01
  6.60028711e-01  6.65386459e-01  6.68499876e-01  6.69509827e-01
  6.72313004e-01  6.73991976e-01  6.75826893e-01  6.82387503e-01
  6.87469714e-01  6.88250347e-01  6.90637054e-01  6.95597205e-01
  7.01873997e-01  7.03319324e-01  7.04719546e-01  7.08441253e-01
  7.10227217e-01  7.13955507e-01  7.16339763e-01  7.20294662e-01
  7.22460288e-01  7.24279857e-01  7.28969001e-01  7.29802951e-01
  7.33592257e-01  7.39812202e-01  7.40475089e-01  7.46953044e-01
  7.51223389e-01  7.52758624e-01  7.61298491e-01  7.68563453e-01
  7.72356279e-01  7.78773810e-01  7.80344542e-01  7.84866378e-01
  7.93865985e-01  8.02526743e-01  8.03330559e-01  8.11376751e-01
  8.13374864e-01  8.20413595e-01  8.25218244e-01  8.26433183e-01
  8.30238241e-01  8.31673709e-01  8.36113755e-01  8.38792148e-01
  8.45470868e-01  8.47105973e-01  8.53113294e-01  8.54947386e-01
  8.55068061e-01  8.58829524e-01  8.59836548e-01  8.63648877e-01
  8.68390700e-01  8.70351140e-01  8.71424781e-01  8.76010235e-01
  8.76548089e-01  8.80770825e-01  8.81845416e-01  8.92127149e-01
  8.94398538e-01  8.99464670e-01  9.01927123e-01  9.05817407e-01
  9.08639623e-01  9.11930229e-01  9.19829001e-01  9.27093589e-01
  9.32910832e-01  9.36900091e-01  9.45847912e-01  9.52729947e-01
  9.57568104e-01  9.60347203e-01  9.69975934e-01  9.72247605e-01
  9.74811360e-01  9.77767647e-01  9.89631766e-01  9.99010294e-01
  1.00273882e+00  1.00601721e+00  1.01185406e+00  1.01426188e+00
  1.02419099e+00  1.02966426e+00  1.03450815e+00  1.03623889e+00
  1.04039070e+00  1.04167774e+00  1.04761616e+00  1.05656792e+00
  1.06011172e+00  1.06190270e+00  1.06949963e+00  1.07473514e+00
  1.08117774e+00  1.08473076e+00  1.09670395e+00  1.09742539e+00
  1.10313028e+00  1.10742503e+00  1.11097285e+00  1.11740060e+00
  1.11995239e+00  1.12165770e+00  1.12388397e+00  1.12939072e+00
  1.13364632e+00  1.14149241e+00  1.14372084e+00  1.14745707e+00
  1.15081904e+00  1.15422668e+00  1.15867568e+00  1.16064064e+00
  1.16262046e+00  1.16573975e+00  1.16993712e+00  1.17304048e+00
  1.17861974e+00  1.18235106e+00  1.18767087e+00  1.19372431e+00
  1.19771578e+00  1.20475377e+00  1.21127733e+00  1.21717169e+00
  1.21941414e+00  1.22574941e+00  1.22983575e+00  1.23949240e+00
  1.24522614e+00  1.25029034e+00  1.25563605e+00  1.26214399e+00
  1.27067275e+00  1.27890210e+00  1.28096242e+00  1.28710955e+00
  1.29330184e+00  1.29620406e+00  1.30263162e+00  1.30911107e+00
  1.31074758e+00  1.31305359e+00  1.32068541e+00  1.32472610e+00
  1.32779303e+00  1.33070506e+00  1.33678896e+00  1.33880826e+00
  1.34849812e+00  1.35344119e+00  1.35624880e+00  1.36669244e+00
  1.37128751e+00  1.37477200e+00  1.37897991e+00  1.39675066e+00
  1.39909957e+00  1.40415940e+00  1.41303822e+00  1.41473662e+00
  1.42030177e+00  1.42436576e+00  1.43030212e+00  1.43870232e+00
  1.44089644e+00  1.44721564e+00  1.44880660e+00  1.46085214e+00
  1.46501367e+00  1.46664144e+00  1.47064569e+00  1.47385184e+00
  1.47680986e+00  1.48094772e+00  1.48490130e+00  1.49465697e+00
  1.49852501e+00  1.50406616e+00  1.50661724e+00  1.51223679e+00
  1.51613992e+00  1.52005756e+00  1.52655973e+00  1.53423502e+00
  1.53799963e+00  1.54026360e+00  1.54105512e+00  1.54287054e+00
  1.54520254e+00  1.55039357e+00  1.55550218e+00  1.55722043e+00
  1.56060130e+00  1.56286594e+00  1.56526334e+00  1.56912487e+00
  1.57423595e+00  1.57783998e+00  1.57883822e+00  1.58308220e+00
  1.58568923e+00  1.59064957e+00  1.59362559e+00  1.59920639e+00
  1.60294328e+00  1.60554686e+00  1.60704319e+00  1.61152125e+00
  1.61306135e+00  1.61539038e+00  1.61746822e+00  1.62261649e+00
  1.63107740e+00  1.63312653e+00  1.63523249e+00  1.64241250e+00
  1.64564591e+00  1.64742463e+00  1.65286974e+00  1.65685879e+00
  1.66212257e+00  1.66604763e+00  1.66853408e+00  1.67272482e+00
  1.67756156e+00  1.67972796e+00  1.68589062e+00  1.68702138e+00
  1.69337383e+00  1.69961098e+00  1.70468853e+00  1.70707730e+00
  1.71578748e+00  1.72115080e+00  1.72686288e+00  1.73294964e+00
  1.73614449e+00  1.74129678e+00  1.74494215e+00  1.74750616e+00
  1.75165708e+00  1.75318977e+00  1.75348313e+00  1.75837028e+00
  1.76336317e+00  1.77215373e+00  1.77266476e+00  1.77977326e+00
  1.78190573e+00  1.78903967e+00  1.79304996e+00  1.79765951e+00
  1.80404785e+00  1.81211542e+00  1.81593781e+00  1.81747817e+00
  1.81983309e+00  1.82717995e+00  1.83145987e+00  1.83724939e+00
  1.84744814e+00  1.84868952e+00  1.86024999e+00  1.86250259e+00
  1.86505249e+00  1.87095417e+00  1.87826460e+00  1.87954461e+00
  1.88195172e+00  1.88446224e+00  1.89169682e+00  1.89885108e+00
  1.90405759e+00  1.90788219e+00  1.90942417e+00  1.91406028e+00
  1.92007853e+00  1.92048095e+00  1.92329982e+00  1.93302139e+00
  1.93422949e+00  1.93693402e+00  1.94031783e+00  1.94596295e+00
  1.95758547e+00  1.96098812e+00  1.96993406e+00  1.97191392e+00
  1.97425815e+00  1.98826208e+00  1.99692508e+00  1.99924005e+00
  2.00341415e+00  2.00887058e+00  2.01152779e+00  2.01696446e+00
  2.02255034e+00  2.02958917e+00  2.03346979e+00  2.03734074e+00
  2.04003737e+00  2.04550354e+00  2.04848282e+00  2.06127380e+00
  2.06260147e+00  2.06764385e+00  2.07565124e+00  2.07814665e+00
  2.08789622e+00  2.09161310e+00  2.09639774e+00  2.10059299e+00
  2.10640458e+00  2.11175781e+00  2.11359060e+00  2.12161575e+00
  2.13047838e+00  2.13272002e+00  2.13541225e+00  2.14483838e+00
  2.14932651e+00  2.15229169e+00  2.15978538e+00  2.16563545e+00
  2.16811659e+00  2.17352196e+00  2.17949420e+00  2.18665324e+00
  2.19369770e+00  2.19972205e+00  2.20301915e+00  2.20560013e+00
  2.21305337e+00  2.21457731e+00  2.21974393e+00  2.22098725e+00
  2.22898109e+00  2.23707650e+00  2.23779741e+00  2.24697388e+00
  2.25385150e+00  2.26054293e+00  2.26958298e+00  2.27862847e+00
  2.28097572e+00  2.29223060e+00  2.29893622e+00  2.30628394e+00
  2.30750571e+00  2.31472960e+00  2.31763774e+00  2.31997942e+00
  2.32525619e+00  2.33610550e+00  2.33929308e+00  2.34147920e+00
  2.34265989e+00  2.34306556e+00  2.34395533e+00  2.34680954e+00
  2.35790336e+00  2.35952631e+00  2.36384157e+00  2.36489776e+00
  2.36827159e+00  2.38357340e+00  2.38508421e+00  2.39075717e+00
  2.39320214e+00  2.39790119e+00  2.39934982e+00  2.40356235e+00
  2.40988225e+00  2.41740379e+00  2.41961818e+00  2.43039567e+00
  2.43418327e+00  2.43600779e+00  2.43759096e+00  2.44217037e+00
  2.44726136e+00  2.45457369e+00  2.45820610e+00  2.46411648e+00
  2.46740650e+00  2.46984312e+00  2.47985674e+00  2.48359810e+00
  2.48832017e+00  2.49176179e+00  2.49742625e+00  2.50388039e+00
  2.50680344e+00  2.50987185e+00  2.51732318e+00  2.52610044e+00
  2.52765308e+00  2.54010963e+00  2.54263193e+00  2.54736329e+00
  2.55096650e+00  2.55377127e+00  2.55999843e+00  2.56056980e+00
  2.56722361e+00  2.56846650e+00  2.56873498e+00  2.57205727e+00
  2.57385921e+00  2.57786563e+00  2.58666259e+00  2.58822652e+00
  2.59149018e+00  2.59269230e+00  2.59760935e+00  2.59970596e+00
  2.60248023e+00  2.60646491e+00  2.60868156e+00  2.61728092e+00
  2.62093433e+00  2.62717229e+00  2.63318726e+00  2.63729982e+00
  2.63983865e+00  2.64359389e+00  2.64760305e+00  2.65030484e+00
  2.65175088e+00  2.65529854e+00  2.65932414e+00  2.66199476e+00
  2.66457806e+00  2.66662096e+00  2.67018514e+00  2.68420108e+00
  2.68754560e+00  2.69131840e+00  2.69299334e+00  2.69421656e+00
  2.69678725e+00  2.70269241e+00  2.70471171e+00  2.70690825e+00
  2.71672408e+00  2.72068175e+00  2.72224781e+00  2.72549293e+00
  2.72876253e+00  2.73263088e+00  2.73420076e+00  2.73768861e+00
  2.73889466e+00  2.74620160e+00  2.74673086e+00  2.75324057e+00
  2.76177876e+00  2.76446366e+00  2.77338431e+00  2.77597986e+00
  2.78272550e+00  2.78655113e+00  2.78667770e+00  2.79187732e+00
  2.79710530e+00  2.80488124e+00  2.80835247e+00  2.81064897e+00
  2.81332082e+00  2.81861107e+00  2.82041379e+00  2.82699417e+00
  2.83063220e+00  2.83610674e+00  2.83743096e+00  2.84398199e+00
  2.84585378e+00  2.85764432e+00  2.86338748e+00  2.87277059e+00
  2.88293291e+00  2.88890828e+00  2.89583769e+00  2.90352167e+00
  2.90780612e+00  2.90842731e+00  2.91518710e+00  2.92449378e+00
  2.92885013e+00  2.93539260e+00  2.93573808e+00  2.94001837e+00
  2.94663986e+00  2.95011297e+00  2.95559080e+00  2.95709966e+00
  2.96188350e+00  2.96577006e+00  2.96956181e+00  2.97757115e+00
  2.98018593e+00  2.98223654e+00  2.98751562e+00  2.99528025e+00
  3.00270875e+00  3.00532394e+00  3.00937982e+00  3.01759756e+00
  3.02109862e+00  3.02616333e+00  3.03610271e+00  3.03819340e+00
  3.04223143e+00  3.04595174e+00  3.05173804e+00  3.05433440e+00
  3.05967909e+00  3.06456345e+00  3.06710628e+00  3.07390671e+00
  3.07811389e+00  3.08182279e+00  3.08575099e+00  3.08805865e+00
  3.09150129e+00  3.09761844e+00  3.10051846e+00  3.10624530e+00
  3.11198421e+00  3.11871514e+00  3.12077280e+00  3.12438588e+00
  3.12681076e+00  3.12932978e+00  3.13328398e+00  3.13617988e+00
  3.13947453e+00  3.14456523e+00  3.14797543e+00  3.15202275e+00
  3.15400459e+00  3.16247317e+00  3.16759934e+00  3.16885283e+00
  3.17234626e+00  3.17449389e+00  3.18264793e+00  3.18886704e+00
  3.19038582e+00  3.19361455e+00  3.20089643e+00  3.20289986e+00
  3.20930098e+00  3.21402470e+00  3.21735029e+00  3.22598247e+00
  3.22750688e+00  3.23043788e+00  3.23500122e+00  3.23774610e+00
  3.24186632e+00  3.25127656e+00  3.25268437e+00  3.26180614e+00
  3.26605539e+00  3.26761028e+00  3.27173577e+00  3.27378563e+00
  3.27545488e+00  3.27823375e+00  3.28464934e+00  3.28494831e+00
  3.29168751e+00  3.29419869e+00  3.29750272e+00  3.30191175e+00
  3.30397722e+00  3.31397713e+00  3.31790859e+00  3.31922198e+00
  3.32552874e+00  3.32957486e+00  3.33262943e+00  3.33377101e+00
  3.33736262e+00  3.34253448e+00  3.34749502e+00  3.34845067e+00
  3.35385624e+00  3.35629799e+00  3.36025891e+00  3.36341416e+00
[...]
  1.84744888e+00  1.84868943e+00  1.86025017e+00  1.86250217e+00
  1.86505218e+00  1.87095422e+00  1.87826418e+00  1.87954448e+00
  1.88195168e+00  1.88446229e+00  1.89169703e+00  1.89885083e+00
  1.90405738e+00  1.90788146e+00  1.90942383e+00  1.91406010e+00
  1.92007870e+00  1.92048118e+00  1.92329983e+00  1.93302104e+00
  1.93422989e+00  1.93693371e+00  1.94031845e+00  1.94596269e+00
  1.95758589e+00  1.96098877e+00  1.96993433e+00  1.97191363e+00
  1.97425801e+00  1.98826251e+00  1.99692544e+00  1.99924044e+00
  2.00341358e+00  2.00887074e+00  2.01152737e+00  2.01696427e+00
  2.02255063e+00  2.02958921e+00  2.03346935e+00  2.03733991e+00
  2.04003691e+00  2.04550365e+00  2.04848301e+00  2.06127383e+00
  2.06260132e+00  2.06764405e+00  2.07565103e+00  2.07814719e+00
  2.08789633e+00  2.09161300e+00  2.09639754e+00  2.10059356e+00
  2.10640440e+00  2.11175730e+00  2.11359008e+00  2.12161566e+00
  2.13047875e+00  2.13272047e+00  2.13541187e+00  2.14483901e+00
  2.14932650e+00  2.15229173e+00  2.15978558e+00  2.16563518e+00
  2.16811624e+00  2.17352148e+00  2.17949465e+00  2.18665266e+00
  2.19369826e+00  2.19972227e+00  2.20301851e+00  2.20560017e+00
  2.21305342e+00  2.21457749e+00  2.21974355e+00  2.22098737e+00
  2.22898052e+00  2.23707722e+00  2.23779759e+00  2.24697282e+00
  2.25385247e+00  2.26054225e+00  2.26958358e+00  2.27862912e+00
  2.28097503e+00  2.29222977e+00  2.29893697e+00  2.30628444e+00
  2.30750493e+00  2.31472975e+00  2.31763755e+00  2.31997908e+00
  2.32525563e+00  2.33610473e+00  2.33929301e+00  2.34147940e+00
  2.34265979e+00  2.34306533e+00  2.34395523e+00  2.34681017e+00
  2.35790352e+00  2.35952606e+00  2.36384116e+00  2.36489702e+00
  2.36827154e+00  2.38357413e+00  2.38508374e+00  2.39075659e+00
  2.39320249e+00  2.39790145e+00  2.39934982e+00  2.40356176e+00
  2.40988260e+00  2.41740318e+00  2.41961875e+00  2.43039618e+00
  2.43418347e+00  2.43600765e+00  2.43759072e+00  2.44217021e+00
  2.44726075e+00  2.45457327e+00  2.45820546e+00  2.46411606e+00
  2.46740699e+00  2.46984247e+00  2.47985758e+00  2.48359859e+00
  2.48832028e+00  2.49176214e+00  2.49742595e+00  2.50388105e+00
  2.50680337e+00  2.50987163e+00  2.51732294e+00  2.52610030e+00
  2.52765287e+00  2.54011036e+00  2.54263166e+00  2.54736339e+00
  2.55096596e+00  2.55377168e+00  2.55999839e+00  2.56056920e+00
  2.56722325e+00  2.56846643e+00  2.56873484e+00  2.57205720e+00
  2.57385912e+00  2.57786597e+00  2.58666259e+00  2.58822655e+00
  2.59148995e+00  2.59269223e+00  2.59760926e+00  2.59970607e+00
  2.60248025e+00  2.60646531e+00  2.60868185e+00  2.61728122e+00
  2.62093440e+00  2.62717269e+00  2.63318767e+00  2.63729938e+00
  2.63983881e+00  2.64359399e+00  2.64760330e+00  2.65030416e+00
  2.65175132e+00  2.65529826e+00  2.65932375e+00  2.66199430e+00
  2.66457808e+00  2.66662107e+00  2.67018461e+00  2.68420107e+00
  2.68754592e+00  2.69131889e+00  2.69299381e+00  2.69421615e+00
  2.69678738e+00  2.70269262e+00  2.70471193e+00  2.70690852e+00
  2.71672406e+00  2.72068125e+00  2.72224781e+00  2.72549274e+00
  2.72876196e+00  2.73263094e+00  2.73420053e+00  2.73768826e+00
  2.73889428e+00  2.74620185e+00  2.74673113e+00  2.75324079e+00
  2.76177875e+00  2.76446335e+00  2.77338408e+00  2.77597946e+00
  2.78272504e+00  2.78655131e+00  2.78667776e+00  2.79187715e+00
  2.79710491e+00  2.80488146e+00  2.80835178e+00  2.81064921e+00
  2.81332010e+00  2.81861074e+00  2.82041415e+00  2.82699381e+00
  2.83063255e+00  2.83610621e+00  2.83743151e+00  2.84398254e+00
  2.84585307e+00  2.85764486e+00  2.86338657e+00  2.87276972e+00
  2.88293257e+00  2.88890885e+00  2.89583772e+00  2.90352200e+00
  2.90780555e+00  2.90842646e+00  2.91518734e+00  2.92449356e+00
  2.92885027e+00  2.93539206e+00  2.93573738e+00  2.94001774e+00
  2.94663925e+00  2.95011259e+00  2.95559078e+00  2.95709957e+00
  2.96188360e+00  2.96577004e+00  2.96956126e+00  2.97757156e+00
  2.98018557e+00  2.98223520e+00  2.98751551e+00  2.99528043e+00
  3.00270896e+00  3.00532342e+00  3.00937965e+00  3.01759710e+00
  3.02109891e+00  3.02616316e+00  3.03610205e+00  3.03819324e+00
  3.04223122e+00  3.04595082e+00  3.05173790e+00  3.05433398e+00
  3.05967842e+00  3.06456309e+00  3.06710670e+00  3.07390589e+00
  3.07811398e+00  3.08182246e+00  3.08575102e+00  3.08805852e+00
  3.09150159e+00  3.09761837e+00  3.10051793e+00  3.10624476e+00
  3.11198427e+00  3.11871546e+00  3.12077296e+00  3.12438623e+00
  3.12681042e+00  3.12933017e+00  3.13328386e+00  3.13618051e+00
  3.13947401e+00  3.14456477e+00  3.14797541e+00  3.15202241e+00
  3.15400452e+00  3.16247320e+00  3.16759935e+00  3.16885262e+00
  3.17234637e+00  3.17449325e+00  3.18264772e+00  3.18886693e+00
  3.19038583e+00  3.19361471e+00  3.20089640e+00  3.20289948e+00
  3.20930115e+00  3.21402496e+00  3.21735060e+00  3.22598296e+00
  3.22750727e+00  3.23043788e+00  3.23500113e+00  3.23774616e+00
  3.24186588e+00  3.25127655e+00  3.25268512e+00  3.26180601e+00
  3.26605499e+00  3.26760981e+00  3.27173562e+00  3.27378540e+00
  3.27545502e+00  3.27823365e+00  3.28464966e+00  3.28494850e+00
  3.29168719e+00  3.29419905e+00  3.29750276e+00  3.30191123e+00
  3.30397720e+00  3.31397672e+00  3.31790832e+00  3.31922163e+00
  3.32552861e+00  3.32957547e+00  3.33262870e+00  3.33377145e+00
  3.33736284e+00  3.34253447e+00  3.34749500e+00  3.34844999e+00
  3.35385631e+00  3.35629737e+00  3.36025865e+00  3.36341508e+00
  3.36673432e+00  3.37086029e+00  3.37558092e+00  3.37649621e+00
  3.38361317e+00  3.38676409e+00  3.39227429e+00  3.39388217e+00
  3.39929552e+00  3.40244404e+00  3.40421167e+00  3.40631018e+00
  3.41186053e+00  3.41650272e+00  3.41988551e+00  3.42315826e+00
  3.42753705e+00  3.43253574e+00  3.43346116e+00  3.44158650e+00
  3.44544218e+00  3.44708484e+00  3.44841513e+00  3.44974080e+00
  3.45396127e+00  3.46097990e+00  3.46311974e+00  3.47136587e+00
  3.47321535e+00  3.47674668e+00  3.48067806e+00  3.48166167e+00
  3.48590579e+00  3.49380453e+00  3.49592762e+00  3.50111865e+00
  3.50255173e+00  3.50702136e+00  3.50970242e+00  3.51118469e+00
  3.51867587e+00  3.52090809e+00  3.52678911e+00  3.53003176e+00
  3.53695226e+00  3.53809421e+00  3.55590001e+00  3.56601006e+00
  3.56742974e+00  3.56883761e+00  3.57196308e+00  3.57997806e+00
  3.58123655e+00  3.58232188e+00  3.59327221e+00  3.59512618e+00
  3.59692035e+00  3.60189365e+00  3.60611144e+00  3.61826885e+00
  3.61928391e+00  3.62751225e+00  3.63310018e+00  3.63813091e+00
  3.64678237e+00  3.65133389e+00  3.65358884e+00  3.65820386e+00
  3.66456247e+00  3.67102292e+00  3.68346376e+00  3.68933754e+00
  3.70308719e+00  3.71056153e+00  3.71570091e+00  3.72461415e+00
  3.73517431e+00  3.74155968e+00  3.74533458e+00  3.74863223e+00
  3.76157501e+00  3.76483355e+00  3.77162830e+00  3.77672536e+00
  3.78053165e+00  3.78841874e+00  3.80223283e+00  3.81188962e+00
  3.82314338e+00  3.82747471e+00  3.83504328e+00  3.84122515e+00
  3.84357542e+00  3.85226206e+00  3.86095957e+00  3.87553755e+00
  3.88791734e+00  3.89526880e+00  3.90032268e+00  3.90750780e+00
  3.92007207e+00  3.92098643e+00  3.92370062e+00  3.92541318e+00
  3.92745553e+00  3.93129510e+00  3.93579187e+00  3.94614314e+00
  3.95335663e+00  3.95770421e+00  3.96937149e+00  3.97760683e+00
  3.98395540e+00  3.99070302e+00  3.99424287e+00  3.99810099e+00
  4.00045289e+00  4.01223009e+00  4.03059600e+00  4.05335995e+00
  4.05975884e+00  4.06109320e+00  4.06907872e+00  4.07973121e+00
  4.08803296e+00  4.10047079e+00  4.11230854e+00  4.11724495e+00
  4.11992263e+00  4.12481654e+00  4.12768302e+00  4.13921027e+00
  4.14441748e+00  4.14578589e+00  4.15128883e+00  4.15722014e+00
  4.16058390e+00  4.17325355e+00  4.17678196e+00  4.18638379e+00
  4.20663845e+00  4.21358688e+00  4.22347125e+00  4.22866460e+00
  4.23743175e+00  4.24975315e+00  4.25660646e+00  4.26323719e+00
  4.26663464e+00  4.27424694e+00  4.29830255e+00  4.30733614e+00
  4.30911510e+00  4.31539875e+00  4.32229059e+00  4.32912517e+00
  4.33582141e+00  4.35037188e+00  4.35830799e+00  4.35899591e+00
  4.36531615e+00  4.38935658e+00  4.40046147e+00  4.41392357e+00
  4.43787242e+00  4.44520581e+00  4.46153444e+00  4.46559018e+00
  4.47090710e+00  4.47780232e+00  4.49596043e+00  4.50563115e+00
  4.51062505e+00  4.52093821e+00  4.52437167e+00  4.53931976e+00
  4.54358965e+00  4.54559760e+00  4.55314454e+00  4.55561161e+00
  4.56447135e+00  4.56755294e+00  4.58332827e+00  4.58645309e+00
  4.59527723e+00  4.59956777e+00  4.60502850e+00  4.62016813e+00
  4.62883997e+00  4.64225623e+00  4.64800791e+00  4.66933525e+00
  4.68355342e+00  4.68764926e+00  4.69294458e+00  4.70888559e+00
  4.73415487e+00  4.73884193e+00  4.75799551e+00  4.76939802e+00
  4.77186656e+00  4.77708957e+00  4.81321905e+00  4.81738115e+00
  4.83353253e+00  4.83858791e+00  4.86596614e+00  4.86849506e+00
  4.88477386e+00  4.89789880e+00  4.90416751e+00  4.90760805e+00
  4.92437828e+00  4.93354930e+00  4.94950178e+00  4.95680979e+00
  4.96833906e+00  4.99425275e+00  5.00143225e+00  5.01269795e+00
  5.03996806e+00  5.05800556e+00  5.06536062e+00  5.07397865e+00
  5.07995902e+00  5.08977121e+00  5.09908744e+00  5.10430580e+00
  5.11864284e+00  5.12620371e+00  5.12801121e+00  5.13040666e+00
  5.13098582e+00  5.13385424e+00  5.14131536e+00  5.15783306e+00
  5.17202868e+00  5.17644003e+00  5.18384873e+00  5.18619381e+00
  5.19152956e+00  5.19747837e+00  5.20389397e+00  5.21290542e+00
  5.22086529e+00  5.23898946e+00  5.24138683e+00  5.24430294e+00
  5.24616123e+00  5.25389502e+00  5.26591573e+00  5.26948252e+00
  5.27661138e+00  5.29191890e+00  5.29306404e+00  5.30276359e+00
  5.31622490e+00  5.34331881e+00  5.34463147e+00  5.36876841e+00
  5.37131486e+00  5.39594381e+00  5.40572063e+00  5.41691713e+00
  5.43634668e+00  5.44935302e+00  5.45666146e+00  5.46428469e+00
  5.47441234e+00  5.48756449e+00  5.51549738e+00  5.51950937e+00
  5.54948344e+00  5.56269934e+00  5.58216287e+00  5.59289937e+00
  5.60431650e+00  5.60519547e+00  5.61111623e+00  5.63738632e+00
  5.64034876e+00  5.64420584e+00  5.68204111e+00  5.70314323e+00
  5.73350315e+00  5.75566004e+00  5.76214952e+00  5.78505741e+00
  5.79798389e+00  5.81006543e+00  5.84011192e+00  5.86618398e+00
  5.87937243e+00  5.92248756e+00  5.96603186e+00  5.99054547e+00
  6.01259112e+00  6.07154849e+00  6.08625871e+00  6.08848253e+00
  6.10885542e+00  6.13903463e+00  6.22724375e+00  6.26837425e+00
  6.28429125e+00  6.31028102e+00  6.33003089e+00  6.36738926e+00
  6.37165212e+00  6.37767854e+00  6.40413751e+00  6.41643996e+00
  6.42711415e+00  6.43265848e+00  6.44011852e+00  6.46214638e+00
  6.51516801e+00  6.55466915e+00  6.65709156e+00  6.65937008e+00
  6.68385110e+00  6.69209367e+00  6.70583143e+00  6.73453845e+00
  6.74081762e+00  6.76040814e+00  6.76759618e+00  6.77692201e+00
  6.79261872e+00  6.79879141e+00  6.84208875e+00  6.86238836e+00
  6.86782217e+00  6.86905401e+00  6.87144000e+00  6.87389652e+00
  6.92012907e+00  6.98250281e+00  7.09229234e+00  7.11545001e+00
  7.12456804e+00  7.14896787e+00  7.19422207e+00  7.23778540e+00
  7.31805268e+00  7.33081492e+00  7.43001152e+00  9.21645106e+00
  9.41642569e+00  9.60808997e+00  2.17056722e+01  2.22625825e+01
  2.23539388e+01  2.23550441e+01  2.23721382e+01  2.24702855e+01
  2.24719868e+01  2.24937971e+01  2.25425574e+01  2.25526670e+01
  2.25767024e+01  2.26091923e+01  2.26283185e+01  2.26451400e+01
  2.26688180e+01  2.26964256e+01  2.27183544e+01  2.27956584e+01
  2.28065162e+01  2.28851721e+01  2.29079713e+01  2.31218007e+01
  2.32957904e+01  2.33710553e+01  2.35216963e+01  2.35762150e+01
  2.37742613e+01  3.30422116e+01  3.31521125e+01  3.31649960e+01
  4.34756012e+01  4.36965593e+01  4.37809207e+01  4.41017910e+01
  4.41357141e+01  4.41712523e+01  4.44159829e+01]
nelec by numeric integration = 282.00026818903285
    CPU time for vxc    243.79 sec, wall time     16.96 sec
    CPU time for df vj and vk    953.99 sec, wall time     72.88 sec
E1 = -10730.306095363238  Ecoul = 4936.816114968281  Exc = -258.0696124701677
Extra cycle  E= -2098.28001167835  delta_E= 7.28e-12  |g|= 4.24e-06  |ddm|= 5.69e-06
    CPU time for scf_cycle   9195.19 sec, wall time    732.92 sec
    CPU time for SCF   9195.21 sec, wall time    732.94 sec
converged SCF energy = -2098.28001167835
SCF Done after  732.9395 seconds
after SCF memory used: 25345.69921875 MB
Converting <class 'pyscf.df.df_jk.density_fit.<locals>.DFHF'> to RHF
Converting <class 'pyscf.df.df_jk.density_fit.<locals>.DFHF'> to RHF
a_x = 0.25
beta = 0.6575
alpha = 1.54
hdiag (170610,)
n_occ =  141
n_vir =  1210
max_vir =  362
Q-Gamma tensors building time = 37.3005
after Q matrix memory used: 26642.33203125 MB
-------------------------------------------------------------------
|---------------   In-house Developed Davidson Starts   -----------|
Residual conv = 1e-05
Number of excited states = 20
Initial guess:   sTDA
Preconditioner:  sTDA
A matrix size =  170610 * 170610
sTDA nstate = 28
sTDA A diagonalization: threshold = 0.001 ; in 5 steps  16.2319 seconds
sTDA excitation energies:
[2.9764549  3.25317884 3.71817301 3.72745958 3.94073177 3.99644085
 4.29012652 4.30136451 4.59117212 4.61415039 4.66306274 4.92781712
 5.09007211 5.09964696 5.2294498  5.26775375 5.38169435 5.40536381
 5.43045819 5.48004378 5.50379857 5.50838064 5.54214062 5.6751781
 5.68851263 5.74239589 5.74905303 5.77398193]
Intial guess time: 16.5123 seconds
    CPU time for df vj and vk  32181.96 sec, wall time   2412.59 sec
Iteration  0
subspace size:  28
maximum residual norm 0.0864983356837917
sTDA Preconditioning Done after  18 steps;  29.1181 seconds
subgencost 3.0152 10.36 %
mvcost 9.0167 30.97 %
GScost 13.7936 47.37 %
subcost 0.0643 0.22 %
m,new_m 28 48
    CPU time for df vj and vk  22082.59 sec, wall time   1873.62 sec
new generated guesses: 20
Iteration  1
subspace size:  48
maximum residual norm 0.023047045760155
sTDA Preconditioning Done after  17 steps;  23.3198 seconds
subgencost 2.2512 9.65 %
mvcost 8.7409 37.48 %
GScost 9.3032 39.89 %
subcost 0.0596 0.26 %
m,new_m 48 68
    CPU time for df vj and vk  22187.21 sec, wall time   1888.98 sec
new generated guesses: 20
Iteration  2
subspace size:  68
maximum residual norm 0.009017675590887751
sTDA Preconditioning Done after  14 steps;  18.5099 seconds
subgencost 1.5945 8.61 %
mvcost 8.1861 44.23 %
GScost 6.252 33.78 %
subcost 0.0418 0.23 %
m,new_m 68 88
    CPU time for df vj and vk  22293.73 sec, wall time   1879.65 sec
new generated guesses: 20
Iteration  3
subspace size:  88
maximum residual norm 0.002529872165281
sTDA Preconditioning Done after  12 steps;  21.6157 seconds
subgencost 1.8024 8.34 %
mvcost 8.0458 37.22 %
GScost 9.114 42.16 %
subcost 0.0371 0.17 %
m,new_m 88 108
    CPU time for df vj and vk  22257.18 sec, wall time   1888.43 sec
new generated guesses: 20
Iteration  4
subspace size:  108
maximum residual norm 0.000789914523832772
sTDA Preconditioning Done after  14 steps;  23.1626 seconds
subgencost 2.1143 9.13 %
mvcost 8.2827 35.76 %
GScost 10.0116 43.22 %
subcost 0.0447 0.19 %
m,new_m 108 128
    CPU time for df vj and vk  22148.96 sec, wall time   1869.71 sec
new generated guesses: 20
Iteration  5
subspace size:  128
maximum residual norm 0.0001696721358694101
sTDA Preconditioning Done after  12 steps;  14.6618 seconds
subgencost 1.3408 9.15 %
mvcost 6.0297 41.12 %
GScost 5.5219 37.66 %
subcost 0.0281 0.19 %
m,new_m 128 142
    CPU time for df vj and vk  15580.35 sec, wall time   1302.71 sec
new generated guesses: 14
Iteration  6
subspace size:  142
maximum residual norm 3.335739521274239e-05
sTDA Preconditioning Done after  18 steps;  7.3688 seconds
subgencost 0.6483 8.8 %
mvcost 4.7181 64.03 %
GScost 1.3689 18.58 %
subcost 0.0135 0.18 %
m,new_m 142 146
    CPU time for df vj and vk   4512.42 sec, wall time    356.87 sec
new generated guesses: 4
Iteration  7
subspace size:  146
maximum residual norm 7.634591174833687e-06
Davidson procedure aborted
Davidson done after  16784.6364 seconds
Total steps = 8
Final subspace shape =  (146, 146)
Preconditioning time: 138.5265 0.83 %
In-house Davidson time: 16784.685 seconds
Excited State energies (eV) =
[3.2056626  3.46882444 3.99357531 4.00893712 4.13283098 4.29435429
 4.59687962 4.64174903 4.86334466 4.94484495 4.96178454 5.19772268
 5.41136206 5.42238538 5.46126278 5.49615453 5.68260248 5.71347592
 5.72425279 5.75038224]
|---------------   In-house Developed Davidson Done   -----------|
-------------------------------------------------------------------
|---------------   In-house Developed Davidson Starts   -----------|
Residual conv = 1e-05
Number of excited states = 20
Initial guess:   Adiag
Preconditioner:  Adiag
A matrix size =  170610 * 170610
Intial guess time: 0.0122 seconds
    CPU time for df vj and vk  29991.94 sec, wall time   2329.75 sec
Iteration  0
subspace size:  28
maximum residual norm 0.11298007389064096
m,new_m 28 48
    CPU time for df vj and vk  19741.67 sec, wall time   1436.11 sec
new generated guesses: 20
Iteration  1
subspace size:  48
maximum residual norm 0.043894708367091015
m,new_m 48 68
    CPU time for df vj and vk  19721.02 sec, wall time   1429.91 sec
new generated guesses: 20
Iteration  2
subspace size:  68
maximum residual norm 0.023268012278792435
m,new_m 68 88
    CPU time for df vj and vk  19863.30 sec, wall time   1444.07 sec
new generated guesses: 20
Iteration  3
subspace size:  88
maximum residual norm 0.016898601277761476
m,new_m 88 108
    CPU time for df vj and vk  19848.89 sec, wall time   1439.50 sec
new generated guesses: 20
Iteration  4
subspace size:  108
maximum residual norm 0.006974711839943164
m,new_m 108 128
    CPU time for df vj and vk  19941.84 sec, wall time   1455.12 sec
new generated guesses: 20
Iteration  5
subspace size:  128
maximum residual norm 0.002585836794589559
m,new_m 128 148
    CPU time for df vj and vk  19930.69 sec, wall time   1449.13 sec
new generated guesses: 20
Iteration  6
subspace size:  148
maximum residual norm 0.0007131460253493516
m,new_m 148 163
    CPU time for df vj and vk  14985.59 sec, wall time   1087.43 sec
new generated guesses: 15
Iteration  7
subspace size:  163
maximum residual norm 0.00018166005572097467
m,new_m 163 171
    CPU time for df vj and vk   7976.96 sec, wall time    580.98 sec
new generated guesses: 8
Iteration  8
subspace size:  171
maximum residual norm 5.384622483796992e-05
m,new_m 171 176
    CPU time for df vj and vk   5024.27 sec, wall time    370.39 sec
new generated guesses: 5
Iteration  9
subspace size:  176
maximum residual norm 1.5647588397220142e-05
m,new_m 176 177
    CPU time for df vj and vk   1019.58 sec, wall time     82.50 sec
new generated guesses: 1
Iteration  10
subspace size:  177
maximum residual norm 6.5756880183514805e-06
Davidson procedure aborted
Davidson done after  16476.2485 seconds
Total steps = 11
Final subspace shape =  (177, 177)
Preconditioning time: 0.7117 0.0 %
In-house Davidson time: 16476.3413 seconds
Excited State energies (eV) =
[3.2056626  3.46882444 3.99357531 4.00893712 4.13283098 4.29435429
 4.59687962 4.64174903 4.86334466 4.94484495 4.96178454 5.19772268
 5.41136206 5.42238538 5.46126278 5.49615453 5.68260248 5.71347592
 5.72425279 5.75038224]
|---------------   In-house Developed Davidson Done   -----------|
xyzfile = 70_Merocyanine.xyz
checkfile = True
method = RKS
functional = pbe0
basis_set = def2-tzvp
density_fit = True
grid_level = 3
nstates = 20
pytd = False
TDA = True
TDDFT = False
dynpol = False
dynpol_omega = []
stapol = False
sTDA = False
sTDDFT = False
Truncate_test = False
truncate_virtual = 40.0
TDA_options = [0, 1]
TDDFT_options = [0]
dynpol_options = [0]
stapol_options = [0]
TDA_tolerance = 1e-05
TDDFT_tolerance = 1e-05
dynpol_tolerance = 1e-05
stapol_tolerance = 1e-05
max = 35
TDA_initialTOL = 0.001
TDDFT_initialTOL = 0.001
dynpol_initprecTOL = 0.01
stapol_initprecTOL = 0.01
TDA_precondTOL = 0.01
TDDFT_precondTOL = 0.01
TDA_extrainitial = 8
TDDFT_extrainitial = 8
TDDFT_extrainitial_3n = False
eigensolver_tol = 1e-05
memory = 60000
verbose = 5
beta = []
alpha = []
