curpath /scratch/pbsjobs/job.16219454.hpc
lib.num_threads() =  20
at beginning memory used: 0.05 GB
mol.max_memory 50000


System: uname_result(system='Linux', node='compt248', release='3.10.0-1127.el7.x86_64', version='#1 SMP Tue Feb 18 16:39:12 EST 2020', machine='x86_64', processor='x86_64')  Threads 20
Python 3.7.0 (default, Aug 23 2018, 14:24:33) 
[GCC 6.3.0]
numpy 1.18.1  scipy 1.4.1
Date: Mon Aug 30 14:39:01 2021
PySCF version 1.7.4
PySCF path  /home/zzz6/.local/lib/python3.7/site-packages/pyscf

[CONFIG] conf_file None
[INPUT] verbose = 5
[INPUT] max_memory = 50000 
[INPUT] num. atoms = 43
[INPUT] num. electrons = 158
[INPUT] charge = 0
[INPUT] spin (= nelec alpha-beta = 2S) = 0
[INPUT] symmetry False subgroup None
[INPUT] Mole.unit = angstrom
[INPUT]  1 C     -6.253659823309  -1.430674644396   4.882532185649 AA  -11.817704342249  -2.703583251267   9.226648625252 Bohr
[INPUT]  2 C     -5.179284710792  -0.878666118637   5.552546956623 AA   -9.787429624543  -1.660438319159  10.492793041805 Bohr
[INPUT]  3 C     -4.129448994060  -0.258027694899   4.820500142333 AA   -7.803527644134  -0.487601675912   9.109425052437 Bohr
[INPUT]  4 C     -5.321551762962  -0.792191755854   2.732011979527 AA  -10.056275389695  -1.497025456703   5.162754410338 Bohr
[INPUT]  5 C     -6.327587783794  -1.387845847739   3.454553230157 AA  -11.957407940515  -2.622648555342   6.528159487727 Bohr
[INPUT]  6 C     -3.114741728159   0.409581104711   2.919549967452 AA   -5.886008814975   0.773996113700   5.517149845467 Bohr
[INPUT]  7 C     -2.371557389338   0.750655176049   4.095914541615 AA   -4.481593954537   1.418532696720   7.740156713276 Bohr
[INPUT]  8 C     -1.144034229785   1.439607246748   3.961767161096 AA   -2.161911371422   2.720463423293   7.486654903767 Bohr
[INPUT]  9 H     -0.568652542920   1.711735051374   4.851316238774 AA   -1.074597566156   3.234710444915   9.167659034938 Bohr
[INPUT] 10 C     -0.718280728546   1.746174524479   2.672355675068 AA   -1.357353857505   3.299791616958   5.050020333306 Bohr
[INPUT] 11 C     -1.473766191945   1.396304562324   1.520311269787 AA   -2.785014474420   2.638633209273   2.872971923987 Bohr
[INPUT] 12 C     -2.690896647053   0.723052327698   1.618256629315 AA   -5.085057692441   1.366370873079   3.058061828667 Bohr
[INPUT] 13 H     -7.061293778033  -1.908006395625   5.446076304252 AA  -13.343911325577  -3.605609531650  10.291592668520 Bohr
[INPUT] 14 H     -5.096936424993  -0.896942039083   6.641699261816 AA   -9.631813917557  -1.694974803476  12.550992606558 Bohr
[INPUT] 15 H     -5.310456743110  -0.722269775420   1.641395275051 AA  -10.035308840828  -1.364892063595   3.101787532001 Bohr
[INPUT] 16 H     -7.177945205230  -1.824622786871   2.925068708962 AA  -13.564350575020  -3.448037347827   5.527578755473 Bohr
[INPUT] 17 H     -3.276472685953   0.458303076432   0.731767762905 AA   -6.191636031068   0.866067296502   1.382840658677 Bohr
[INPUT] 18 N     -4.250632276772  -0.241767461573   3.394011469925 AA   -8.032530859335  -0.456874288204   6.413752141791 Bohr
[INPUT] 19 N     -3.014782274075   0.331153017127   5.239982897435 AA   -5.697112823195   0.625788507694   9.902132573558 Bohr
[INPUT] 20 C     -0.751150521109   1.832887156545   0.258729778285 AA   -1.419468763220   3.463654743104   0.488928421228 Bohr
[INPUT] 21 C      0.566487708487   2.444668357975   2.260847675691 AA    1.070506621974   4.619753661963   4.272382916415 Bohr
[INPUT] 22 N      0.217528653346   2.810672051641   0.849774870573 AA    0.411069579070   5.311400403571   1.605841772921 Bohr
[INPUT] 23 O      1.388710149319   2.936372992154   0.037790501274 AA    2.624281848617   5.548940754740   0.071413697518 Bohr
[INPUT] 24 C      1.503798713169   4.274878354969  -0.437154214328 AA    2.841767714362   8.078349306722  -0.826101739278 Bohr
[INPUT] 25 H      2.420872015897   4.289162137769  -1.050002319296 AA    4.574785092669   8.105341744238  -1.984216813627 Bohr
[INPUT] 26 H      0.637200080753   4.564459520573  -1.060262391455 AA    1.204133639175   8.625578400547  -2.003605540026 Bohr
[INPUT] 27 H      1.602672789185   4.997530492072   0.393996950551 AA    3.028612638853   9.443963929179   0.744546330455 Bohr
[INPUT] 28 C      0.831559106127   3.736794903629   3.052677264965 AA    1.571418966968   7.061518951529   5.768723977470 Bohr
[INPUT] 29 H      0.986595113004   3.517056561114   4.123592829429 AA    1.864394559412   6.646273665110   7.792461096841 Bohr
[INPUT] 30 H      1.742911133647   4.231969339798   2.674930838316 AA    3.293624702048   7.997263019775   5.054886686571 Bohr
[INPUT] 31 H     -0.019938737305   4.427485282050   2.945569908685 AA   -0.037678752777   8.366734603618   5.566320408175 Bohr
[INPUT] 32 C      1.780713684368   1.495190817392   2.387565858715 AA    3.365061169721   2.825501148835   4.511845577334 Bohr
[INPUT] 33 H      1.996487672011   1.313898482039   3.454346996990 AA    3.772814911171   2.482908286536   6.527769763524 Bohr
[INPUT] 34 H      1.588215323545   0.522534177954   1.908974634073 AA    3.001291988337   0.987446487058   3.607439237140 Bohr
[INPUT] 35 H      2.663918911881   1.951322804440   1.912297097448 AA    5.034077161504   3.687465681010   3.613717782977 Bohr
[INPUT] 36 C     -1.659557465454   2.581190863947  -0.732895461579 AA   -3.136109097686   4.877743808090  -1.384971700320 Bohr
[INPUT] 37 H     -2.120854027725   3.451989903189  -0.240473658326 AA   -4.007833262580   6.523315501791  -0.454429354408 Bohr
[INPUT] 38 H     -1.068230742259   2.931481468724  -1.596611643713 AA   -2.018663540711   5.539697115126  -3.017158733910 Bohr
[INPUT] 39 H     -2.455013659422   1.918411003139  -1.118125310971 AA   -4.639303448375   3.625271390285  -2.112950610680 Bohr
[INPUT] 40 C     -0.085286256500   0.629881753212  -0.450560851928 AA   -0.161167666975   1.190304004431  -0.851436612595 Bohr
[INPUT] 41 H      0.500597569333   0.017504938395   0.251991026186 AA    0.945992304662   0.033079539393   0.476194025340 Bohr
[INPUT] 42 H     -0.863581409978  -0.012514491712  -0.897585015024 AA   -1.631932351124  -0.023648961924  -1.696189851910 Bohr
[INPUT] 43 H      0.586217116509   0.989578562147  -1.246615022304 AA    1.107789799735   1.870032461199  -2.355760974924 Bohr
[INPUT] ---------------- BASIS SET ---------------- 
[INPUT] l, kappa, [nprim/nctr], expnt,             c_1 c_2 ...
[INPUT] N
[INPUT] 0    0    [6    /1   ]  19730.800647      0.00021887984991
                                2957.8958745      0.0016960708803
                                673.22133595      0.0087954603538
                                190.68249494      0.035359382605
                                62.295441898      0.11095789217
                                22.654161182      0.24982972552
[INPUT] 0    0    [2    /1   ]  8.9791477428      0.40623896148
                                3.686300237       0.24338217176
[INPUT] 0    0    [1    /1   ]  0.84660076805        1
[INPUT] 0    0    [1    /1   ]  0.33647133771        1
[INPUT] 0    0    [1    /1   ]  0.13647653675        1
[INPUT] 1    0    [4    /1   ]  49.20038051       0.0055552416751
                                11.346790537      0.038052379723
                                3.4273972411      0.14953671029
                                1.1785525134      0.3494930523
[INPUT] 1    0    [1    /1   ]  0.41642204972        1
[INPUT] 1    0    [1    /1   ]  0.14260826011        1
[INPUT] 2    0    [1    /1   ]  1.654                1
[INPUT] 2    0    [1    /1   ]  0.469                1
[INPUT] 3    0    [1    /1   ]  1.093                1
[INPUT] H
[INPUT] 0    0    [3    /1   ]  34.061341         0.0060251978
                                5.1235746         0.045021094
                                1.1646626         0.20189726
[INPUT] 0    0    [1    /1   ]  0.32723041           1
[INPUT] 0    0    [1    /1   ]  0.10307241           1
[INPUT] 1    0    [1    /1   ]  0.8                  1
[INPUT] O
[INPUT] 0    0    [6    /1   ]  27032.382631      0.00021726302465
                                4052.3871392      0.0016838662199
                                922.3272271       0.0087395616265
                                261.24070989      0.035239968808
                                85.354641351      0.11153519115
                                31.035035245      0.25588953961
[INPUT] 0    0    [2    /1   ]  12.260860728      0.39768730901
                                4.9987076005      0.2462784943
[INPUT] 0    0    [1    /1   ]  1.1703108158         1
[INPUT] 0    0    [1    /1   ]  0.46474740994        1
[INPUT] 0    0    [1    /1   ]  0.18504536357        1
[INPUT] 1    0    [4    /1   ]  63.274954801      0.0060685103418
                                14.627049379      0.041912575824
                                4.4501223456      0.16153841088
                                1.5275799647      0.35706951311
[INPUT] 1    0    [1    /1   ]  0.52935117943        1
[INPUT] 1    0    [1    /1   ]  0.1747842127         1
[INPUT] 2    0    [1    /1   ]  2.314                1
[INPUT] 2    0    [1    /1   ]  0.645                1
[INPUT] 3    0    [1    /1   ]  1.428                1
[INPUT] C
[INPUT] 0    0    [6    /1   ]  13575.349682      0.00022245814352
                                2035.233368       0.0017232738252
                                463.22562359      0.0089255715314
                                131.20019598      0.035727984502
                                42.853015891      0.11076259931
                                15.584185766      0.24295627626
[INPUT] 0    0    [2    /1   ]  6.2067138508      0.41440263448
                                2.5764896527      0.23744968655
[INPUT] 0    0    [1    /1   ]  0.57696339419        1
[INPUT] 0    0    [1    /1   ]  0.22972831358        1
[INPUT] 0    0    [1    /1   ]  0.095164440028       1
[INPUT] 1    0    [4    /1   ]  34.697232244      0.0053333657805
                                7.9582622826      0.035864109092
                                2.3780826883      0.14215873329
                                0.81433208183     0.34270471845
[INPUT] 1    0    [1    /1   ]  0.28887547253        1
[INPUT] 1    0    [1    /1   ]  0.10056823671        1
[INPUT] 2    0    [1    /1   ]  1.097                1
[INPUT] 2    0    [1    /1   ]  0.318                1
[INPUT] 3    0    [1    /1   ]  0.761                1

nuclear repulsion = 1807.15740948176
number of shells = 326
number of NR pGTOs = 1180
number of NR cGTOs = 808
basis = def2-tzvp
ecp = {}
CPU time:         2.83
RKS
Density fitting turned on
Molecule built
Calculating SCF Energy...


******** <class 'pyscf.df.df_jk.density_fit.<locals>.DFHF'> ********
method = DFHF-RKS-RHF
initial guess = chkfile
damping factor = 0
level_shift factor = 0
DIIS = <class 'pyscf.scf.diis.CDIIS'>
diis_start_cycle = 1
diis_space = 8
SCF conv_tol = 1e-10
SCF conv_tol_grad = None
SCF max_cycles = 50
direct_scf = True
direct_scf_tol = 1e-13
chkfile to save SCF result = 43_PyrImid_TMIO5_wb97x.chk
max_memory 50000 MB (current use 56 MB)
XC functionals = wb97x
small_rho_cutoff = 1e-07
radial grids: 
    Treutler-Ahlrichs [JCP 102, 346 (1995); DOI:10.1063/1.469408] (M4) radial grids
    
becke partition: Becke, JCP 88, 2547 (1988); DOI:10.1063/1.454033
pruning grids: <function nwchem_prune at 0x7f23a61cce18>
grids dens level: 3
symmetrized grids: False
atomic radii adjust function: <function treutler_atomic_radii_adjust at 0x7f23a61ccd90>
Set gradient conv threshold to 1e-05
atom C rad-grids = 75, ang-grids = [ 50  50  50  50  50  50  50  50  50  50  50  50  50  50  50  50  50  50
  50  50  50  50  50  86  86  86  86  86  86  86  86  86  86 266 266 266
 266 266 266 266 302 302 302 302 302 302 302 302 302 302 302 302 302 302
 302 302 302 302 302 302 266 266 266 266 266 266 266 266 266 266 266 266
 266 266 266]
atom H rad-grids = 50, ang-grids = [ 50  50  50  50  50  50  50  50  50  50  50  50  50  50  86  86  86  86
 266 266 266 266 302 302 302 302 302 302 302 302 302 302 302 302 302 266
 266 266 266 266 266 266 266 266 266 266 266 266 266 266]
atom N rad-grids = 75, ang-grids = [ 50  50  50  50  50  50  50  50  50  50  50  50  50  50  50  50  50  50
  50  50  50  50  50  86  86  86  86  86  86  86  86  86 266 266 266 266
 266 266 266 302 302 302 302 302 302 302 302 302 302 302 302 302 302 302
 302 302 302 302 266 266 266 266 266 266 266 266 266 266 266 266 266 266
 266 266 266]
atom O rad-grids = 75, ang-grids = [ 50  50  50  50  50  50  50  50  50  50  50  50  50  50  50  50  50  50
  50  50  50  50  86  86  86  86  86  86  86  86  86 266 266 266 266 266
 266 266 302 302 302 302 302 302 302 302 302 302 302 302 302 302 302 302
 302 302 302 266 266 266 266 266 266 266 266 266 266 266 266 266 266 266
 266 266 266]
tot grids = 517140
Drop grids 97664
    CPU time for setting up grids     75.21 sec, wall time      4.27 sec
nelec by numeric integration = 158.00011427820513
    CPU time for vxc    100.37 sec, wall time      5.82 sec
******** <class 'pyscf.df.df.DF'> ********
auxbasis = None
max_memory = 50000
_cderi_to_save = /tmp/job.16219454.hpc/tmpcgx_ttmh
Default auxbasis def2-tzvp-jkfit is used for N def2-tzvp
Default auxbasis def2-tzvp-jkfit is used for H def2-tzvp
Default auxbasis def2-tzvp-jkfit is used for O def2-tzvp
Default auxbasis def2-tzvp-jkfit is used for C def2-tzvp
num shells = 676, num cGTOs = 2036
size of aux basis 2036
int3c2e [1/1], AO [0:326], nrow = 326836
    CPU time for cholesky_eri     96.62 sec, wall time     15.46 sec
    CPU time for df vj and vk    266.10 sec, wall time     26.18 sec
Create RSH-DF object <pyscf.df.df.DF object at 0x7f238bcf1be0> for omega=0.3
******** <class 'pyscf.df.df.DF'> ********
auxbasis = None
max_memory = 50000
_cderi_to_save = /tmp/job.16219454.hpc/tmp4eensav9
Default auxbasis def2-tzvp-jkfit is used for N def2-tzvp
Default auxbasis def2-tzvp-jkfit is used for H def2-tzvp
Default auxbasis def2-tzvp-jkfit is used for O def2-tzvp
Default auxbasis def2-tzvp-jkfit is used for C def2-tzvp
num shells = 676, num cGTOs = 2036
size of aux basis 1596
int3c2e [1/1], AO [0:326], nrow = 326836
    CPU time for cholesky_eri    132.33 sec, wall time      8.89 sec
    CPU time for df vj and vk    265.68 sec, wall time     16.54 sec
E1 = -4861.779665996734  Ecoul = 2251.2223810389255  Exc = -134.6850240971822
init E= -938.084899573234
cond(S) = 1945850.4467873306
    CPU time for initialize scf    713.76 sec, wall time     53.36 sec
  HOMO = -0.287314494531566  LUMO = 0.0086083726813611
  mo_energy =
[-1.92216695e+01 -1.44807968e+01 -1.44286267e+01 -1.43740345e+01
 -1.03372218e+01 -1.03295603e+01 -1.03021962e+01 -1.03021304e+01
 -1.02998328e+01 -1.02962857e+01 -1.02911421e+01 -1.02896673e+01
 -1.02826760e+01 -1.02822399e+01 -1.02771727e+01 -1.02685523e+01
 -1.02671122e+01 -1.02631847e+01 -1.02476112e+01 -1.02445953e+01
 -1.02438246e+01 -1.02420744e+01 -1.19226496e+00 -1.16288923e+00
 -1.04242630e+00 -1.03362813e+00 -9.80078139e-01 -9.50520326e-01
 -9.36246415e-01 -8.96296737e-01 -8.73081109e-01 -8.60697476e-01
 -8.51077182e-01 -8.17675992e-01 -8.06711515e-01 -8.05150088e-01
 -7.75643248e-01 -7.50498227e-01 -7.41463587e-01 -7.18371394e-01
 -7.01369056e-01 -6.69288827e-01 -6.50899870e-01 -6.32074621e-01
 -6.13394718e-01 -5.99975124e-01 -5.93490140e-01 -5.88957662e-01
 -5.79108195e-01 -5.78211389e-01 -5.64133075e-01 -5.58267452e-01
 -5.55458003e-01 -5.41627720e-01 -5.39771366e-01 -5.24527380e-01
 -5.20111360e-01 -5.15256969e-01 -5.07470347e-01 -5.03164454e-01
 -4.95838067e-01 -4.89106962e-01 -4.86019843e-01 -4.80925921e-01
 -4.76984191e-01 -4.59807551e-01 -4.58538366e-01 -4.54075022e-01
 -4.45541689e-01 -4.37709590e-01 -4.29819075e-01 -4.22142992e-01
 -4.17270848e-01 -3.80358305e-01 -3.68632481e-01 -3.61158279e-01
 -3.26634303e-01 -3.13643881e-01 -2.87314495e-01  8.60837268e-03
  5.82886474e-02  8.31318956e-02  1.05150527e-01  1.08009878e-01
  1.17243476e-01  1.32113177e-01  1.41793524e-01  1.44670028e-01
  1.53309868e-01  1.56368709e-01  1.60535189e-01  1.66666257e-01
  1.75900748e-01  1.77643430e-01  1.81855374e-01  1.84179422e-01
  1.89336777e-01  1.93069958e-01  2.04829763e-01  2.07160236e-01
  2.09730094e-01  2.11200618e-01  2.11754485e-01  2.17042137e-01
  2.21615593e-01  2.26289923e-01  2.27937170e-01  2.37712724e-01
  2.42726271e-01  2.48257796e-01  2.50129433e-01  2.53672034e-01
  2.57906536e-01  2.59518547e-01  2.63419514e-01  2.68184888e-01
  2.70786358e-01  2.75629537e-01  2.84008413e-01  2.88359149e-01
  2.89222265e-01  2.96933996e-01  3.00771575e-01  3.04089030e-01
  3.08742543e-01  3.13347025e-01  3.16401140e-01  3.24480167e-01
  3.26428743e-01  3.36796472e-01  3.38317679e-01  3.51990002e-01
  3.56975246e-01  3.58040796e-01  3.59840195e-01  3.67041539e-01
  3.71944701e-01  3.76540006e-01  3.84565942e-01  3.88479713e-01
  3.97843037e-01  4.03957307e-01  4.05579854e-01  4.10645254e-01
  4.16026639e-01  4.18778868e-01  4.25417506e-01  4.26957969e-01
  4.27746410e-01  4.35231164e-01  4.44199582e-01  4.45617087e-01
  4.51137526e-01  4.52330134e-01  4.53937479e-01  4.64048904e-01
  4.67931840e-01  4.71078938e-01  4.77320013e-01  4.83775809e-01
  4.86639771e-01  4.88782967e-01  4.91055844e-01  4.97230859e-01
  5.00412747e-01  5.04734209e-01  5.07735562e-01  5.14350636e-01
  5.21516067e-01  5.27288505e-01  5.27877258e-01  5.31097391e-01
  5.34455474e-01  5.39734306e-01  5.43160719e-01  5.46688043e-01
  5.49463357e-01  5.52824253e-01  5.56677223e-01  5.60852281e-01
  5.61800561e-01  5.63337164e-01  5.68974960e-01  5.72834893e-01
  5.79189044e-01  5.82476918e-01  5.87556597e-01  5.88456763e-01
  5.91910997e-01  6.00193054e-01  6.05390211e-01  6.06123999e-01
  6.14165431e-01  6.21398764e-01  6.24461805e-01  6.34314673e-01
  6.36323919e-01  6.39554773e-01  6.44114656e-01  6.50441115e-01
  6.56552184e-01  6.69500236e-01  6.73529811e-01  6.79036190e-01
  6.81327732e-01  6.91037903e-01  6.99311166e-01  7.04786178e-01
  7.10394762e-01  7.15144925e-01  7.22792554e-01  7.32771106e-01
  7.36062196e-01  7.39027890e-01  7.44749436e-01  7.53096436e-01
  7.54923761e-01  7.57869722e-01  7.64726065e-01  7.66085047e-01
  7.70418922e-01  7.76043072e-01  7.93194819e-01  7.99028083e-01
  8.16978619e-01  8.20720434e-01  8.26101191e-01  8.28337072e-01
  8.32869293e-01  8.36942550e-01  8.40114942e-01  8.47881731e-01
  8.50114181e-01  8.65542872e-01  8.68977521e-01  8.82140549e-01
  8.88156364e-01  8.96186762e-01  9.01335365e-01  9.07326171e-01
  9.15794837e-01  9.31914796e-01  9.36995842e-01  9.40545833e-01
  9.45341152e-01  9.54573888e-01  9.62089308e-01  9.67100380e-01
  9.70505902e-01  9.80578590e-01  9.85809762e-01  9.90058573e-01
  9.95620199e-01  9.99256933e-01  1.00323102e+00  1.01153316e+00
  1.01314102e+00  1.02691354e+00  1.02965971e+00  1.04718978e+00
  1.05846021e+00  1.07342156e+00  1.07890943e+00  1.08183500e+00
  1.08760037e+00  1.09852835e+00  1.10394262e+00  1.11548014e+00
  1.11610947e+00  1.12594311e+00  1.14279630e+00  1.14733982e+00
  1.14811604e+00  1.16516803e+00  1.17652680e+00  1.17720594e+00
  1.17870258e+00  1.18589217e+00  1.19268846e+00  1.20090444e+00
  1.20253961e+00  1.21701580e+00  1.21924158e+00  1.23384550e+00
  1.23846931e+00  1.24847298e+00  1.25810295e+00  1.26544660e+00
  1.27476401e+00  1.28420322e+00  1.29875059e+00  1.30458411e+00
  1.31562772e+00  1.31825276e+00  1.32007060e+00  1.33314431e+00
  1.33545310e+00  1.34366151e+00  1.35086891e+00  1.35388587e+00
  1.35637303e+00  1.36810309e+00  1.38111086e+00  1.39455979e+00
  1.40213037e+00  1.40882049e+00  1.41593684e+00  1.42324539e+00
  1.43262639e+00  1.44291580e+00  1.45545496e+00  1.46424408e+00
  1.46883171e+00  1.47563097e+00  1.48758768e+00  1.49183862e+00
  1.50164407e+00  1.50845975e+00  1.52381211e+00  1.53513224e+00
  1.54576028e+00  1.55358190e+00  1.57469196e+00  1.58410168e+00
  1.58506800e+00  1.58700093e+00  1.59745822e+00  1.60038898e+00
  1.60828818e+00  1.61021406e+00  1.61207934e+00  1.61431668e+00
  1.62617758e+00  1.62870245e+00  1.63354892e+00  1.64395904e+00
  1.64770319e+00  1.65083716e+00  1.65212245e+00  1.66515219e+00
  1.67253497e+00  1.67832183e+00  1.68133886e+00  1.68800810e+00
  1.69372618e+00  1.69743212e+00  1.70511910e+00  1.71561581e+00
  1.72051528e+00  1.72110080e+00  1.73900611e+00  1.74214051e+00
  1.74882853e+00  1.75251774e+00  1.76288619e+00  1.76799038e+00
  1.76944496e+00  1.77410234e+00  1.77628843e+00  1.78260211e+00
  1.79183957e+00  1.80055010e+00  1.81154556e+00  1.81673881e+00
  1.82260345e+00  1.82540374e+00  1.83260708e+00  1.84184759e+00
  1.84958142e+00  1.85712648e+00  1.86850352e+00  1.87354432e+00
  1.88237298e+00  1.89303397e+00  1.89894233e+00  1.90306921e+00
  1.91474044e+00  1.92770838e+00  1.92987884e+00  1.93830500e+00
  1.95408060e+00  1.95854579e+00  1.96319508e+00  1.98487297e+00
  1.99165492e+00  1.99748373e+00  2.01186173e+00  2.02291366e+00
  2.02969417e+00  2.03724135e+00  2.04747242e+00  2.05637509e+00
  2.06762935e+00  2.07489659e+00  2.10204383e+00  2.10800544e+00
  2.11563433e+00  2.11897988e+00  2.13311843e+00  2.14877275e+00
  2.15072056e+00  2.15586470e+00  2.15860000e+00  2.16965734e+00
  2.17359637e+00  2.18971397e+00  2.19604565e+00  2.20723065e+00
  2.21663325e+00  2.22050140e+00  2.23538736e+00  2.25061642e+00
  2.25399573e+00  2.26168858e+00  2.26442275e+00  2.26839110e+00
  2.27630265e+00  2.28606884e+00  2.29072656e+00  2.29583003e+00
  2.30434255e+00  2.31853651e+00  2.32724412e+00  2.33177740e+00
  2.33905135e+00  2.34604968e+00  2.36240402e+00  2.36899113e+00
  2.38705854e+00  2.38858988e+00  2.39480035e+00  2.39900825e+00
  2.40472862e+00  2.41074438e+00  2.42111621e+00  2.42451640e+00
  2.43304800e+00  2.44164538e+00  2.44739780e+00  2.45122528e+00
  2.46438662e+00  2.46658632e+00  2.46756372e+00  2.47274479e+00
  2.48005611e+00  2.48686860e+00  2.49129961e+00  2.49671405e+00
  2.50599201e+00  2.51040005e+00  2.52029664e+00  2.53179424e+00
  2.53972685e+00  2.55922616e+00  2.56976276e+00  2.57258473e+00
  2.57716235e+00  2.58130937e+00  2.59485723e+00  2.60311633e+00
  2.61582838e+00  2.62188081e+00  2.62490037e+00  2.63107725e+00
  2.63561951e+00  2.64819774e+00  2.66331961e+00  2.66945211e+00
  2.67350502e+00  2.67698382e+00  2.68342634e+00  2.69174790e+00
  2.69319217e+00  2.70181254e+00  2.70935757e+00  2.71440313e+00
  2.72030008e+00  2.72615862e+00  2.72972789e+00  2.73431699e+00
  2.74767860e+00  2.75012967e+00  2.75485003e+00  2.75919066e+00
  2.76832551e+00  2.76975041e+00  2.78084718e+00  2.78851524e+00
  2.79056915e+00  2.79519493e+00  2.80351532e+00  2.82154061e+00
  2.83041608e+00  2.83842092e+00  2.83949661e+00  2.84288952e+00
  2.85418128e+00  2.85597421e+00  2.86324846e+00  2.87252427e+00
  2.88028674e+00  2.88839337e+00  2.89562171e+00  2.89981751e+00
  2.90160648e+00  2.91505167e+00  2.91710154e+00  2.92243646e+00
  2.92507892e+00  2.93355098e+00  2.93803439e+00  2.94950062e+00
  2.97285702e+00  2.97372540e+00  2.97685351e+00  2.99235098e+00
  3.00238266e+00  3.01408060e+00  3.02455096e+00  3.02945553e+00
  3.03853115e+00  3.04607019e+00  3.05716553e+00  3.06073104e+00
  3.07287700e+00  3.08019607e+00  3.08181743e+00  3.09725664e+00
  3.10770629e+00  3.11746944e+00  3.12549507e+00  3.13670530e+00
  3.14274032e+00  3.15230372e+00  3.16176558e+00  3.16782977e+00
  3.18092998e+00  3.19583986e+00  3.20132231e+00  3.20431244e+00
  3.21966166e+00  3.22123719e+00  3.23051606e+00  3.23625841e+00
  3.24376592e+00  3.24536894e+00  3.25628276e+00  3.25850361e+00
  3.26486217e+00  3.27067389e+00  3.27499043e+00  3.28276650e+00
  3.29002326e+00  3.29128663e+00  3.30214951e+00  3.30375728e+00
  3.30964365e+00  3.31516902e+00  3.31783590e+00  3.32882651e+00
  3.33422578e+00  3.34150930e+00  3.34512578e+00  3.35043461e+00
  3.35464125e+00  3.35652440e+00  3.35993100e+00  3.36734215e+00
  3.37834569e+00  3.38912352e+00  3.39138623e+00  3.39468625e+00
  3.39838827e+00  3.41022040e+00  3.41515224e+00  3.41971290e+00
  3.42502895e+00  3.42990790e+00  3.43284537e+00  3.43990441e+00
  3.44255163e+00  3.44789005e+00  3.45156528e+00  3.45475004e+00
  3.46752429e+00  3.47195489e+00  3.47760011e+00  3.47790723e+00
  3.48744799e+00  3.49438017e+00  3.49612309e+00  3.50440235e+00
  3.51300478e+00  3.51707792e+00  3.53188721e+00  3.53940292e+00
  3.54487316e+00  3.54787813e+00  3.55811486e+00  3.56902161e+00
  3.57666113e+00  3.58229035e+00  3.59628017e+00  3.59821110e+00
  3.61268379e+00  3.61669370e+00  3.62281259e+00  3.62670849e+00
  3.62853870e+00  3.64060355e+00  3.64348447e+00  3.65041553e+00
  3.65613151e+00  3.66324788e+00  3.67278419e+00  3.67983687e+00
  3.68787597e+00  3.69629899e+00  3.70624616e+00  3.70876428e+00
  3.71712375e+00  3.72729013e+00  3.73606350e+00  3.74576486e+00
  3.77090111e+00  3.78031215e+00  3.78540660e+00  3.78985209e+00
  3.79834552e+00  3.80560195e+00  3.82354229e+00  3.83246615e+00
  3.83603490e+00  3.85365795e+00  3.85719286e+00  3.86200655e+00
  3.88111636e+00  3.89663088e+00  3.91177601e+00  3.92152280e+00
  3.94026032e+00  3.95159881e+00  3.96199057e+00  3.96794479e+00
  3.99277179e+00  3.99736108e+00  4.00703569e+00  4.01595892e+00
  4.02741920e+00  4.04721568e+00  4.06792157e+00  4.08520744e+00
  4.09537706e+00  4.09651139e+00  4.09998723e+00  4.10866502e+00
  4.12683895e+00  4.13631527e+00  4.14201245e+00  4.15373818e+00
  4.15715682e+00  4.17106009e+00  4.17249482e+00  4.18737182e+00
  4.19909933e+00  4.21074702e+00  4.22905110e+00  4.24174858e+00
  4.25080168e+00  4.25664384e+00  4.25854994e+00  4.27494221e+00
  4.28274195e+00  4.28496946e+00  4.29633821e+00  4.30791065e+00
  4.31250621e+00  4.33065779e+00  4.33810370e+00  4.34756727e+00
  4.35572687e+00  4.36291522e+00  4.37165204e+00  4.38775233e+00
  4.39947679e+00  4.40372688e+00  4.41398355e+00  4.42551761e+00
  4.42747967e+00  4.44148630e+00  4.45072623e+00  4.46464812e+00
  4.48014740e+00  4.48905206e+00  4.50187239e+00  4.51147960e+00
  4.51295280e+00  4.52148746e+00  4.52943630e+00  4.53987835e+00
  4.55647094e+00  4.58293030e+00  4.59201065e+00  4.60944060e+00
  4.61289479e+00  4.61855205e+00  4.63413034e+00  4.69089173e+00
  4.71660597e+00  4.73491437e+00  4.74138246e+00  4.75037599e+00
  4.78377462e+00  4.79572653e+00  4.81281798e+00  4.83393697e+00
  4.84202338e+00  4.85734983e+00  4.87747120e+00  4.88216985e+00
  4.90006318e+00  4.93036339e+00  4.96533925e+00  4.97148555e+00
  4.98893207e+00  5.00448169e+00  5.01177337e+00  5.01947884e+00
  5.03401407e+00  5.03544383e+00  5.04514713e+00  5.07613524e+00
  5.08601194e+00  5.09329009e+00  5.11814823e+00  5.12361526e+00
  5.14164756e+00  5.15694857e+00  5.18247903e+00  5.18476385e+00
  5.20362738e+00  5.23018335e+00  5.23898092e+00  5.26325126e+00
  5.27389418e+00  5.31390514e+00  5.32686038e+00  5.35698827e+00
  5.38786521e+00  5.38969559e+00  5.41029972e+00  5.42022571e+00
  5.44234726e+00  5.45453410e+00  5.49657158e+00  5.54374343e+00
  5.55163714e+00  5.55896116e+00  5.59347409e+00  5.59582435e+00
  5.65169874e+00  5.69523517e+00  5.72023560e+00  5.76137911e+00
  5.79492528e+00  5.81218279e+00  5.85835304e+00  5.87986853e+00
  5.91912757e+00  5.95521958e+00  5.98900505e+00  6.06008746e+00
  6.06553955e+00  6.10631882e+00  6.13033433e+00  6.15452304e+00
  6.19001272e+00  6.36582510e+00  6.37942969e+00  6.62927353e+00
  6.78328810e+00  6.82599058e+00  7.02936501e+00  7.04044787e+00
  7.35416909e+00  7.82811591e+00  2.23657679e+01  2.23706630e+01
  2.24309824e+01  2.24711167e+01  2.24810776e+01  2.25416102e+01
  2.25488694e+01  2.25950069e+01  2.27099669e+01  2.27274759e+01
  2.28589468e+01  2.28810467e+01  2.29458781e+01  2.29995186e+01
  2.30273510e+01  2.33819807e+01  2.34998762e+01  2.37672840e+01
  3.25786974e+01  3.28599061e+01  3.31796963e+01  4.41650580e+01]
nelec by numeric integration = 158.00011427805896
    CPU time for vxc     85.01 sec, wall time      4.80 sec
    CPU time for df vj and vk    167.41 sec, wall time      9.79 sec
    CPU time for df vj and vk    129.89 sec, wall time      6.77 sec
E1 = -4861.77965346462  Ecoul = 2251.222367596097  Exc = -134.68502318645997
cycle= 1 E= -938.084899573227  delta_E= 7.28e-12  |g|= 5.28e-06  |ddm|= 1e-05
    CPU time for cycle= 1    387.70 sec, wall time     21.88 sec
  HOMO = -0.287314314571548  LUMO = 0.00860824855890286
  mo_energy =
[-1.92216729e+01 -1.44808004e+01 -1.44286258e+01 -1.43740320e+01
 -1.03372213e+01 -1.03295618e+01 -1.03021974e+01 -1.03021308e+01
 -1.02998322e+01 -1.02962855e+01 -1.02911415e+01 -1.02896658e+01
 -1.02826758e+01 -1.02822390e+01 -1.02771740e+01 -1.02685532e+01
 -1.02671117e+01 -1.02631828e+01 -1.02476115e+01 -1.02445956e+01
 -1.02438243e+01 -1.02420743e+01 -1.19226586e+00 -1.16289006e+00
 -1.04242617e+00 -1.03362816e+00 -9.80078219e-01 -9.50520287e-01
 -9.36246395e-01 -8.96296755e-01 -8.73081302e-01 -8.60697279e-01
 -8.51077267e-01 -8.17676094e-01 -8.06711696e-01 -8.05150066e-01
 -7.75643441e-01 -7.50498378e-01 -7.41463653e-01 -7.18371547e-01
 -7.01368955e-01 -6.69288905e-01 -6.50900277e-01 -6.32074633e-01
 -6.13394669e-01 -5.99975374e-01 -5.93490144e-01 -5.88958246e-01
 -5.79108316e-01 -5.78211681e-01 -5.64133193e-01 -5.58267470e-01
 -5.55458282e-01 -5.41627717e-01 -5.39771363e-01 -5.24527705e-01
 -5.20111304e-01 -5.15257013e-01 -5.07469987e-01 -5.03164442e-01
 -4.95838009e-01 -4.89107137e-01 -4.86019791e-01 -4.80925915e-01
 -4.76984132e-01 -4.59807566e-01 -4.58538420e-01 -4.54075208e-01
 -4.45541663e-01 -4.37709620e-01 -4.29819130e-01 -4.22142999e-01
 -4.17270915e-01 -3.80357425e-01 -3.68633278e-01 -3.61158276e-01
 -3.26634308e-01 -3.13643863e-01 -2.87314315e-01  8.60824856e-03
  5.82886373e-02  8.31318422e-02  1.05150288e-01  1.08010014e-01
  1.17243366e-01  1.32113178e-01  1.41793561e-01  1.44669947e-01
  1.53309744e-01  1.56368689e-01  1.60535090e-01  1.66666263e-01
  1.75900650e-01  1.77643311e-01  1.81855336e-01  1.84179375e-01
  1.89336875e-01  1.93069862e-01  2.04829896e-01  2.07160170e-01
  2.09730097e-01  2.11200529e-01  2.11754567e-01  2.17042153e-01
  2.21615532e-01  2.26289789e-01  2.27937126e-01  2.37712411e-01
  2.42726275e-01  2.48257677e-01  2.50129472e-01  2.53671971e-01
  2.57906536e-01  2.59518454e-01  2.63419551e-01  2.68184689e-01
  2.70786352e-01  2.75629432e-01  2.84008333e-01  2.88359094e-01
  2.89222282e-01  2.96933961e-01  3.00771530e-01  3.04088960e-01
  3.08742534e-01  3.13346988e-01  3.16401063e-01  3.24480098e-01
  3.26428796e-01  3.36796500e-01  3.38317628e-01  3.51989943e-01
  3.56975184e-01  3.58040774e-01  3.59840233e-01  3.67041542e-01
  3.71944583e-01  3.76540020e-01  3.84565855e-01  3.88479648e-01
  3.97843018e-01  4.03957243e-01  4.05579733e-01  4.10645176e-01
  4.16026537e-01  4.18778817e-01  4.25417501e-01  4.26957902e-01
  4.27746294e-01  4.35231216e-01  4.44199649e-01  4.45617025e-01
  4.51137538e-01  4.52330253e-01  4.53937487e-01  4.64048919e-01
  4.67931847e-01  4.71078917e-01  4.77320049e-01  4.83775808e-01
  4.86639701e-01  4.88782981e-01  4.91055876e-01  4.97230906e-01
  5.00412666e-01  5.04734255e-01  5.07735574e-01  5.14350606e-01
  5.21516098e-01  5.27288564e-01  5.27877242e-01  5.31097340e-01
  5.34455463e-01  5.39734285e-01  5.43160680e-01  5.46688071e-01
  5.49463412e-01  5.52824295e-01  5.56677218e-01  5.60852173e-01
  5.61800609e-01  5.63337012e-01  5.68974957e-01  5.72834963e-01
  5.79189165e-01  5.82476997e-01  5.87556651e-01  5.88456841e-01
  5.91910937e-01  6.00193096e-01  6.05390187e-01  6.06123938e-01
  6.14165497e-01  6.21398689e-01  6.24461724e-01  6.34314653e-01
  6.36323758e-01  6.39554706e-01  6.44114521e-01  6.50441058e-01
  6.56552093e-01  6.69500118e-01  6.73529757e-01  6.79036195e-01
  6.81327761e-01  6.91037811e-01  6.99311123e-01  7.04785999e-01
  7.10394744e-01  7.15144890e-01  7.22792608e-01  7.32770950e-01
  7.36062093e-01  7.39027757e-01  7.44749439e-01  7.53096471e-01
  7.54923675e-01  7.57869687e-01  7.64725977e-01  7.66085009e-01
  7.70418991e-01  7.76042934e-01  7.93194827e-01  7.99028055e-01
  8.16978565e-01  8.20720388e-01  8.26101170e-01  8.28336998e-01
  8.32869338e-01  8.36942487e-01  8.40114941e-01  8.47881567e-01
  8.50114185e-01  8.65542793e-01  8.68977484e-01  8.82140570e-01
  8.88156389e-01  8.96186760e-01  9.01335295e-01  9.07326072e-01
  9.15794736e-01  9.31914797e-01  9.36995788e-01  9.40545846e-01
  9.45341237e-01  9.54573802e-01  9.62089215e-01  9.67100335e-01
  9.70505802e-01  9.80578527e-01  9.85809748e-01  9.90058505e-01
  9.95620200e-01  9.99256947e-01  1.00323098e+00  1.01153330e+00
  1.01314106e+00  1.02691344e+00  1.02965967e+00  1.04718977e+00
  1.05846017e+00  1.07342150e+00  1.07890941e+00  1.08183500e+00
  1.08760036e+00  1.09852833e+00  1.10394257e+00  1.11548016e+00
  1.11610952e+00  1.12594309e+00  1.14279626e+00  1.14733979e+00
  1.14811599e+00  1.16516795e+00  1.17652679e+00  1.17720592e+00
  1.17870254e+00  1.18589217e+00  1.19268843e+00  1.20090450e+00
  1.20253953e+00  1.21701580e+00  1.21924160e+00  1.23384549e+00
  1.23846929e+00  1.24847297e+00  1.25810300e+00  1.26544650e+00
  1.27476394e+00  1.28420335e+00  1.29875054e+00  1.30458397e+00
  1.31562773e+00  1.31825275e+00  1.32007057e+00  1.33314427e+00
  1.33545306e+00  1.34366145e+00  1.35086894e+00  1.35388576e+00
  1.35637304e+00  1.36810314e+00  1.38111073e+00  1.39455992e+00
  1.40213044e+00  1.40882044e+00  1.41593675e+00  1.42324528e+00
  1.43262626e+00  1.44291584e+00  1.45545495e+00  1.46424410e+00
  1.46883173e+00  1.47563087e+00  1.48758769e+00  1.49183862e+00
  1.50164399e+00  1.50845993e+00  1.52381203e+00  1.53513241e+00
  1.54576028e+00  1.55358188e+00  1.57469207e+00  1.58410170e+00
  1.58506804e+00  1.58700096e+00  1.59745826e+00  1.60038900e+00
  1.60828812e+00  1.61021403e+00  1.61207928e+00  1.61431691e+00
  1.62617752e+00  1.62870240e+00  1.63354892e+00  1.64395900e+00
  1.64770320e+00  1.65083739e+00  1.65212247e+00  1.66515216e+00
  1.67253483e+00  1.67832188e+00  1.68133862e+00  1.68800807e+00
  1.69372613e+00  1.69743211e+00  1.70511912e+00  1.71561581e+00
  1.72051536e+00  1.72110075e+00  1.73900602e+00  1.74214050e+00
  1.74882848e+00  1.75251768e+00  1.76288618e+00  1.76799028e+00
  1.76944492e+00  1.77410228e+00  1.77628839e+00  1.78260201e+00
  1.79183959e+00  1.80055002e+00  1.81154551e+00  1.81673865e+00
  1.82260324e+00  1.82540358e+00  1.83260704e+00  1.84184754e+00
  1.84958130e+00  1.85712649e+00  1.86850362e+00  1.87354399e+00
  1.88237288e+00  1.89303378e+00  1.89894231e+00  1.90306914e+00
  1.91474037e+00  1.92770829e+00  1.92987880e+00  1.93830500e+00
  1.95408063e+00  1.95854578e+00  1.96319501e+00  1.98487298e+00
  1.99165487e+00  1.99748380e+00  2.01186178e+00  2.02291360e+00
  2.02969411e+00  2.03724140e+00  2.04747235e+00  2.05637495e+00
  2.06762929e+00  2.07489661e+00  2.10204386e+00  2.10800534e+00
  2.11563429e+00  2.11897970e+00  2.13311849e+00  2.14877264e+00
  2.15072049e+00  2.15586474e+00  2.15860008e+00  2.16965728e+00
  2.17359624e+00  2.18971396e+00  2.19604564e+00  2.20723063e+00
  2.21663320e+00  2.22050151e+00  2.23538729e+00  2.25061630e+00
  2.25399574e+00  2.26168851e+00  2.26442278e+00  2.26839102e+00
  2.27630267e+00  2.28606874e+00  2.29072652e+00  2.29583000e+00
  2.30434253e+00  2.31853648e+00  2.32724406e+00  2.33177732e+00
  2.33905124e+00  2.34604951e+00  2.36240401e+00  2.36899101e+00
  2.38705848e+00  2.38858972e+00  2.39480027e+00  2.39900819e+00
  2.40472847e+00  2.41074435e+00  2.42111613e+00  2.42451644e+00
  2.43304798e+00  2.44164540e+00  2.44739787e+00  2.45122540e+00
  2.46438687e+00  2.46658629e+00  2.46756368e+00  2.47274473e+00
  2.48005611e+00  2.48686870e+00  2.49129967e+00  2.49671404e+00
  2.50599168e+00  2.51040000e+00  2.52029656e+00  2.53179421e+00
  2.53972671e+00  2.55922610e+00  2.56976269e+00  2.57258477e+00
  2.57716224e+00  2.58130926e+00  2.59485716e+00  2.60311633e+00
  2.61582835e+00  2.62188076e+00  2.62490033e+00  2.63107721e+00
  2.63561946e+00  2.64819773e+00  2.66331955e+00  2.66945212e+00
  2.67350509e+00  2.67698386e+00  2.68342626e+00  2.69174795e+00
  2.69319194e+00  2.70181256e+00  2.70935749e+00  2.71440298e+00
  2.72030008e+00  2.72615853e+00  2.72972792e+00  2.73431684e+00
  2.74767848e+00  2.75012966e+00  2.75484995e+00  2.75919053e+00
  2.76832546e+00  2.76975043e+00  2.78084722e+00  2.78851526e+00
  2.79056908e+00  2.79519491e+00  2.80351533e+00  2.82154059e+00
  2.83041618e+00  2.83842086e+00  2.83949671e+00  2.84288947e+00
  2.85418122e+00  2.85597408e+00  2.86324839e+00  2.87252423e+00
  2.88028678e+00  2.88839339e+00  2.89562167e+00  2.89981751e+00
  2.90160634e+00  2.91505149e+00  2.91710152e+00  2.92243636e+00
  2.92507895e+00  2.93355088e+00  2.93803439e+00  2.94950053e+00
  2.97285692e+00  2.97372560e+00  2.97685359e+00  2.99235093e+00
  3.00238273e+00  3.01408036e+00  3.02455106e+00  3.02945532e+00
  3.03853098e+00  3.04607010e+00  3.05716527e+00  3.06073095e+00
  3.07287680e+00  3.08019618e+00  3.08181717e+00  3.09725674e+00
  3.10770628e+00  3.11746930e+00  3.12549499e+00  3.13670532e+00
  3.14274033e+00  3.15230376e+00  3.16176549e+00  3.16782982e+00
  3.18092991e+00  3.19583978e+00  3.20132226e+00  3.20431241e+00
  3.21966154e+00  3.22123707e+00  3.23051608e+00  3.23625842e+00
  3.24376586e+00  3.24536870e+00  3.25628270e+00  3.25850349e+00
  3.26486220e+00  3.27067384e+00  3.27499031e+00  3.28276649e+00
  3.29002328e+00  3.29128663e+00  3.30214950e+00  3.30375725e+00
  3.30964374e+00  3.31516893e+00  3.31783578e+00  3.32882655e+00
  3.33422577e+00  3.34150917e+00  3.34512563e+00  3.35043462e+00
  3.35464125e+00  3.35652439e+00  3.35993110e+00  3.36734210e+00
  3.37834571e+00  3.38912345e+00  3.39138619e+00  3.39468641e+00
  3.39838828e+00  3.41022040e+00  3.41515219e+00  3.41971289e+00
  3.42502900e+00  3.42990784e+00  3.43284537e+00  3.43990443e+00
  3.44255166e+00  3.44789004e+00  3.45156527e+00  3.45475006e+00
  3.46752449e+00  3.47195482e+00  3.47760013e+00  3.47790718e+00
  3.48744793e+00  3.49438009e+00  3.49612301e+00  3.50440232e+00
  3.51300474e+00  3.51707795e+00  3.53188724e+00  3.53940290e+00
  3.54487305e+00  3.54787804e+00  3.55811483e+00  3.56902164e+00
  3.57666120e+00  3.58229027e+00  3.59628017e+00  3.59821096e+00
  3.61268360e+00  3.61669367e+00  3.62281255e+00  3.62670856e+00
  3.62853872e+00  3.64060347e+00  3.64348457e+00  3.65041553e+00
  3.65613134e+00  3.66324778e+00  3.67278419e+00  3.67983681e+00
  3.68787592e+00  3.69629893e+00  3.70624616e+00  3.70876424e+00
  3.71712390e+00  3.72729022e+00  3.73606335e+00  3.74576482e+00
  3.77090112e+00  3.78031213e+00  3.78540655e+00  3.78985211e+00
  3.79834554e+00  3.80560188e+00  3.82354227e+00  3.83246611e+00
  3.83603492e+00  3.85365795e+00  3.85719276e+00  3.86200645e+00
  3.88111630e+00  3.89663096e+00  3.91177604e+00  3.92152280e+00
  3.94026029e+00  3.95159890e+00  3.96199056e+00  3.96794482e+00
  3.99277159e+00  3.99736103e+00  4.00703577e+00  4.01595905e+00
  4.02741925e+00  4.04721602e+00  4.06792196e+00  4.08520732e+00
  4.09537713e+00  4.09651137e+00  4.09998723e+00  4.10866507e+00
  4.12683885e+00  4.13631531e+00  4.14201245e+00  4.15373822e+00
  4.15715686e+00  4.17106004e+00  4.17249479e+00  4.18737179e+00
  4.19909932e+00  4.21074704e+00  4.22905100e+00  4.24174830e+00
  4.25080164e+00  4.25664386e+00  4.25854990e+00  4.27494244e+00
  4.28274193e+00  4.28496940e+00  4.29633810e+00  4.30791062e+00
  4.31250624e+00  4.33065776e+00  4.33810366e+00  4.34756733e+00
  4.35572675e+00  4.36291516e+00  4.37165208e+00  4.38775224e+00
  4.39947700e+00  4.40372685e+00  4.41398342e+00  4.42551746e+00
  4.42747963e+00  4.44148630e+00  4.45072623e+00  4.46464820e+00
  4.48014734e+00  4.48905212e+00  4.50187234e+00  4.51147962e+00
  4.51295275e+00  4.52148742e+00  4.52943631e+00  4.53987832e+00
  4.55647093e+00  4.58293018e+00  4.59201069e+00  4.60944049e+00
  4.61289468e+00  4.61855203e+00  4.63413030e+00  4.69089159e+00
  4.71660604e+00  4.73491433e+00  4.74138237e+00  4.75037592e+00
  4.78377468e+00  4.79572646e+00  4.81281780e+00  4.83393666e+00
  4.84202328e+00  4.85734962e+00  4.87747096e+00  4.88216982e+00
  4.90006335e+00  4.93036361e+00  4.96533925e+00  4.97148549e+00
  4.98893227e+00  5.00448176e+00  5.01177344e+00  5.01947889e+00
  5.03401412e+00  5.03544415e+00  5.04514732e+00  5.07613516e+00
  5.08601190e+00  5.09329012e+00  5.11814818e+00  5.12361541e+00
  5.14164703e+00  5.15694863e+00  5.18247865e+00  5.18476390e+00
  5.20362639e+00  5.23018340e+00  5.23898105e+00  5.26325177e+00
  5.27389441e+00  5.31390499e+00  5.32686007e+00  5.35698713e+00
  5.38786506e+00  5.38969563e+00  5.41029982e+00  5.42022543e+00
  5.44234739e+00  5.45453418e+00  5.49657149e+00  5.54374351e+00
  5.55163709e+00  5.55896106e+00  5.59347334e+00  5.59582390e+00
  5.65169905e+00  5.69523501e+00  5.72023543e+00  5.76137890e+00
  5.79492535e+00  5.81218291e+00  5.85835320e+00  5.87986881e+00
  5.91912714e+00  5.95521892e+00  5.98900465e+00  6.06008694e+00
  6.06553951e+00  6.10631891e+00  6.13033370e+00  6.15452225e+00
  6.19001217e+00  6.36582418e+00  6.37942851e+00  6.62927312e+00
  6.78328665e+00  6.82598893e+00  7.02936366e+00  7.04044630e+00
  7.35416753e+00  7.82811474e+00  2.23657681e+01  2.23706631e+01
  2.24309824e+01  2.24711167e+01  2.24810777e+01  2.25416105e+01
  2.25488695e+01  2.25950068e+01  2.27099671e+01  2.27274761e+01
  2.28589467e+01  2.28810472e+01  2.29458781e+01  2.29995184e+01
  2.30273510e+01  2.33819804e+01  2.34998767e+01  2.37672841e+01
  3.25786996e+01  3.28599069e+01  3.31796930e+01  4.41650548e+01]
nelec by numeric integration = 158.0001142782017
    CPU time for vxc     84.52 sec, wall time      4.86 sec
    CPU time for df vj and vk    167.26 sec, wall time     10.01 sec
    CPU time for df vj and vk    130.36 sec, wall time      6.79 sec
E1 = -4861.779676179656  Ecoul = 2251.222391692757  Exc = -134.6850245680785
Extra cycle  E= -938.084899573221  delta_E= 5.91e-12  |g|= 6.99e-06  |ddm|= 1.71e-05
    CPU time for scf_cycle   1487.86 sec, wall time     97.35 sec
    CPU time for SCF   1487.87 sec, wall time     97.35 sec
converged SCF energy = -938.084899573221
SCF Done after 97.41 seconds
after SCF memory used: 9.97 GB
Converting <class 'pyscf.df.df_jk.density_fit.<locals>.DFHF'> to RHF
Converting <class 'pyscf.df.df_jk.density_fit.<locals>.DFHF'> to RHF
hdiag shape (57591,)
n_occ =  79
n_vir =  729
max_vir =  198
A_size =  57591
A_reduced_size = 15642
a_x = 0.56
beta = 8.0
alpha = 4.58
Q-Gamma tensors building time = 0.30
after Q matrix memory used: 10.13 GB
TDDFT
|-------- In-house Developed TDDFT Starts ---------|
Residual conv = 1e-05

Number of excited states = 1
Initial guess:   sTDDFT
Preconditioner:  sTDDFT
A matrix size =  57591
setting initial guess
sTDDFT Convergence tol = 1.00e-03
sTDDFT diagonalization Converged
after  8 iterations; 0.5976 seconds
final subspace 16
max_norm =  7.75e-04
MVcost     0.3709s 62.06%
GScost     0.0860s 14.39%
subgencost 0.0788s 13.19%
subcost    0.0058s 0.98%
sTDDFT excitation energy:
[3.61958565 4.27442978]
new_m = 2
initial guess done

iteration 0
beginning of step 0 memory used: 10.15 GB
    CPU time for df vj and vk    344.38 sec, wall time     20.57 sec
    CPU time for df vj and vk    262.34 sec, wall time     13.65 sec
subspace size: 2
Maximum residual norm:  1.74e-01
unconverged states [0]
sTDDFT_preconditioner conv 0.01
sTDDFT preconditioning Done
after 10 steps; 0.3508 s
final subspace 10
max_norm =  7.82e-03
initial_cost 0.0048s  1.36%
MVcost     0.2076s  59.17%
GScost     0.0414s  11.81%
subgencost 0.0635s  18.09%
subcost    0.0060s  1.71%
m & new_m 2 3

iteration 1
beginning of step 1 memory used: 10.17 GB
    CPU time for df vj and vk    169.03 sec, wall time      9.98 sec
    CPU time for df vj and vk    132.37 sec, wall time      6.90 sec
subspace size: 3
Maximum residual norm:  4.31e-02
unconverged states [0]
sTDDFT_preconditioner conv 0.01
sTDDFT preconditioning Done
after 10 steps; 0.3553 s
final subspace 10
max_norm =  8.38e-03
initial_cost 0.0036s  1.02%
MVcost     0.2139s  60.20%
GScost     0.0411s  11.57%
subgencost 0.0633s  17.83%
subcost    0.0059s  1.67%
m & new_m 3 4

iteration 2
beginning of step 2 memory used: 10.19 GB
    CPU time for df vj and vk    169.31 sec, wall time      9.96 sec
    CPU time for df vj and vk    131.95 sec, wall time      6.93 sec
subspace size: 4
Maximum residual norm:  1.77e-02
unconverged states [0]
sTDDFT_preconditioner conv 0.01
sTDDFT preconditioning Done
after 11 steps; 0.3943 s
final subspace 11
max_norm =  4.18e-03
initial_cost 0.0038s  0.97%
MVcost     0.2242s  56.87%
GScost     0.0493s  12.50%
subgencost 0.0777s  19.70%
subcost    0.0073s  1.85%
m & new_m 4 5

iteration 3
beginning of step 3 memory used: 10.19 GB
    CPU time for df vj and vk    168.70 sec, wall time      9.95 sec
    CPU time for df vj and vk    133.62 sec, wall time      7.05 sec
subspace size: 5
Maximum residual norm:  7.27e-03
unconverged states [0]
sTDDFT_preconditioner conv 0.01
sTDDFT preconditioning Done
after 10 steps; 0.3642 s
final subspace 10
max_norm =  7.72e-03
initial_cost 0.0058s  1.60%
MVcost     0.2156s  59.19%
GScost     0.0434s  11.92%
subgencost 0.0648s  17.80%
subcost    0.0066s  1.80%
m & new_m 5 6

iteration 4
beginning of step 4 memory used: 10.19 GB
    CPU time for df vj and vk    169.60 sec, wall time     10.19 sec
    CPU time for df vj and vk    131.37 sec, wall time      6.88 sec
subspace size: 6
Maximum residual norm:  2.50e-03
unconverged states [0]
sTDDFT_preconditioner conv 0.01
sTDDFT preconditioning Done
after 6 steps; 0.2021 s
final subspace 6
max_norm =  9.13e-03
initial_cost 0.0036s  1.81%
MVcost     0.1382s  68.39%
GScost     0.0171s  8.47%
subgencost 0.0257s  12.70%
subcost    0.0034s  1.69%
m & new_m 6 7

iteration 5
beginning of step 5 memory used: 10.19 GB
    CPU time for df vj and vk    168.64 sec, wall time      9.85 sec
    CPU time for df vj and vk    130.81 sec, wall time      6.83 sec
subspace size: 7
Maximum residual norm:  7.40e-04
unconverged states [0]
sTDDFT_preconditioner conv 0.01
sTDDFT preconditioning Done
after 10 steps; 0.4066 s
final subspace 10
max_norm =  6.26e-03
initial_cost 0.0035s  0.86%
MVcost     0.2611s  64.23%
GScost     0.0433s  10.65%
subgencost 0.0645s  15.86%
subcost    0.0060s  1.49%
m & new_m 7 8

iteration 6
beginning of step 6 memory used: 10.19 GB
    CPU time for df vj and vk    168.52 sec, wall time      9.87 sec
    CPU time for df vj and vk    131.19 sec, wall time      6.94 sec
subspace size: 8
Maximum residual norm:  3.23e-04
unconverged states [0]
sTDDFT_preconditioner conv 0.01
sTDDFT preconditioning Done
after 9 steps; 0.3240 s
final subspace 9
max_norm =  8.60e-03
initial_cost 0.0034s  1.06%
MVcost     0.2046s  63.14%
GScost     0.0349s  10.76%
subgencost 0.0520s  16.04%
subcost    0.0053s  1.64%
m & new_m 8 9

iteration 7
beginning of step 7 memory used: 10.19 GB
    CPU time for df vj and vk    170.92 sec, wall time     10.07 sec
    CPU time for df vj and vk    131.25 sec, wall time      6.88 sec
subspace size: 9
Maximum residual norm:  1.02e-04
unconverged states [0]
sTDDFT_preconditioner conv 0.01
sTDDFT preconditioning Done
after 6 steps; 0.2020 s
final subspace 6
max_norm =  7.63e-03
initial_cost 0.0035s  1.74%
MVcost     0.1376s  68.12%
GScost     0.0174s  8.59%
subgencost 0.0260s  12.87%
subcost    0.0034s  1.69%
m & new_m 9 10

iteration 8
beginning of step 8 memory used: 10.19 GB
    CPU time for df vj and vk    168.51 sec, wall time      9.96 sec
    CPU time for df vj and vk    130.67 sec, wall time      6.81 sec
subspace size: 10
Maximum residual norm:  3.88e-05
unconverged states [0]
sTDDFT_preconditioner conv 0.01
sTDDFT preconditioning Done
after 5 steps; 0.1591 s
final subspace 5
max_norm =  7.88e-03
initial_cost 0.0032s  2.04%
MVcost     0.1118s  70.27%
GScost     0.0121s  7.63%
subgencost 0.0184s  11.56%
subcost    0.0028s  1.74%
m & new_m 10 11

iteration 9
beginning of step 9 memory used: 10.19 GB
    CPU time for df vj and vk    169.11 sec, wall time     10.00 sec
    CPU time for df vj and vk    131.24 sec, wall time      6.96 sec
subspace size: 11
Maximum residual norm:  1.42e-05
unconverged states [0]
sTDDFT_preconditioner conv 0.01
sTDDFT preconditioning Done
after 6 steps; 0.1997 s
final subspace 6
max_norm =  5.60e-03
initial_cost 0.0036s  1.78%
MVcost     0.1358s  67.98%
GScost     0.0173s  8.65%
subgencost 0.0257s  12.85%
subcost    0.0034s  1.70%
m & new_m 11 12

iteration 10
beginning of step 10 memory used: 10.19 GB
    CPU time for df vj and vk    169.09 sec, wall time      9.99 sec
    CPU time for df vj and vk    131.33 sec, wall time      6.86 sec
subspace size: 12
Maximum residual norm:  5.12e-06
TDDFT precedure Done

============= TDDFT Calculation Done ==============
after 11 iterations 273.58 s
Final subspace  12
preconditioning cost 2.9776 0.01 %
max_norm =  5.12e-06
Total TDDFT memory used: 10.19 GB
Excited State energies (eV) =
 [3.9054791]

Number of excited states = 1
Initial guess:   Adiag
Preconditioner:  Adiag
A matrix size =  57591
new_m = 2
initial guess done

iteration 0
beginning of step 0 memory used: 10.15 GB
    CPU time for df vj and vk    335.72 sec, wall time     19.90 sec
    CPU time for df vj and vk    262.11 sec, wall time     13.71 sec
subspace size: 2
Maximum residual norm:  1.98e-01
unconverged states [0]
m & new_m 2 3

iteration 1
beginning of step 1 memory used: 10.16 GB
    CPU time for df vj and vk    168.14 sec, wall time     10.01 sec
    CPU time for df vj and vk    131.34 sec, wall time      6.93 sec
subspace size: 3
Maximum residual norm:  5.41e-02
unconverged states [0]
m & new_m 3 4

iteration 2
beginning of step 2 memory used: 10.19 GB
    CPU time for df vj and vk    169.59 sec, wall time     10.06 sec
    CPU time for df vj and vk    130.90 sec, wall time      6.84 sec
subspace size: 4
Maximum residual norm:  3.82e-02
unconverged states [0]
m & new_m 4 5

iteration 3
beginning of step 3 memory used: 10.19 GB
    CPU time for df vj and vk    169.42 sec, wall time     10.41 sec
    CPU time for df vj and vk    130.94 sec, wall time      6.88 sec
subspace size: 5
Maximum residual norm:  1.83e-02
unconverged states [0]
m & new_m 5 6

iteration 4
beginning of step 4 memory used: 10.19 GB
    CPU time for df vj and vk    168.42 sec, wall time     10.02 sec
    CPU time for df vj and vk    130.53 sec, wall time      6.83 sec
subspace size: 6
Maximum residual norm:  9.35e-03
unconverged states [0]
m & new_m 6 7

iteration 5
beginning of step 5 memory used: 10.19 GB
    CPU time for df vj and vk    170.67 sec, wall time     10.23 sec
    CPU time for df vj and vk    130.88 sec, wall time      6.85 sec
subspace size: 7
Maximum residual norm:  5.26e-03
unconverged states [0]
m & new_m 7 8

iteration 6
beginning of step 6 memory used: 10.19 GB
    CPU time for df vj and vk    169.18 sec, wall time     10.01 sec
    CPU time for df vj and vk    131.38 sec, wall time      6.88 sec
subspace size: 8
Maximum residual norm:  2.48e-03
unconverged states [0]
m & new_m 8 9

iteration 7
beginning of step 7 memory used: 10.19 GB
    CPU time for df vj and vk    169.30 sec, wall time      9.98 sec
    CPU time for df vj and vk    131.99 sec, wall time      6.92 sec
subspace size: 9
Maximum residual norm:  1.46e-03
unconverged states [0]
m & new_m 9 10

iteration 8
beginning of step 8 memory used: 10.19 GB
    CPU time for df vj and vk    169.14 sec, wall time      9.93 sec
    CPU time for df vj and vk    131.97 sec, wall time      6.93 sec
subspace size: 10
Maximum residual norm:  8.54e-04
unconverged states [0]
m & new_m 10 11

iteration 9
beginning of step 9 memory used: 10.19 GB
    CPU time for df vj and vk    170.22 sec, wall time     10.15 sec
    CPU time for df vj and vk    130.90 sec, wall time      6.83 sec
subspace size: 11
Maximum residual norm:  5.43e-04
unconverged states [0]
m & new_m 11 12

iteration 10
beginning of step 10 memory used: 10.19 GB
    CPU time for df vj and vk    168.79 sec, wall time      9.99 sec
    CPU time for df vj and vk    130.63 sec, wall time      6.80 sec
subspace size: 12
Maximum residual norm:  3.39e-04
unconverged states [0]
m & new_m 12 13

iteration 11
beginning of step 11 memory used: 10.19 GB
    CPU time for df vj and vk    170.55 sec, wall time     10.85 sec
    CPU time for df vj and vk    132.01 sec, wall time      7.46 sec
subspace size: 13
Maximum residual norm:  2.12e-04
unconverged states [0]
m & new_m 13 14

iteration 12
beginning of step 12 memory used: 10.19 GB
    CPU time for df vj and vk    175.53 sec, wall time     10.53 sec
    CPU time for df vj and vk    132.91 sec, wall time      7.02 sec
subspace size: 14
Maximum residual norm:  1.45e-04
unconverged states [0]
m & new_m 14 15

iteration 13
beginning of step 13 memory used: 10.19 GB
    CPU time for df vj and vk    170.56 sec, wall time     10.18 sec
    CPU time for df vj and vk    132.58 sec, wall time      6.99 sec
subspace size: 15
Maximum residual norm:  8.03e-05
unconverged states [0]
m & new_m 15 16

iteration 14
beginning of step 14 memory used: 10.19 GB
    CPU time for df vj and vk    170.50 sec, wall time     10.18 sec
    CPU time for df vj and vk    132.09 sec, wall time      6.93 sec
subspace size: 16
Maximum residual norm:  3.67e-05
unconverged states [0]
m & new_m 16 17

iteration 15
beginning of step 15 memory used: 10.19 GB
    CPU time for df vj and vk    171.07 sec, wall time     10.14 sec
    CPU time for df vj and vk    132.41 sec, wall time      6.95 sec
subspace size: 17
Maximum residual norm:  1.99e-05
unconverged states [0]
m & new_m 17 18

iteration 16
beginning of step 16 memory used: 10.19 GB
    CPU time for df vj and vk    170.65 sec, wall time     10.07 sec
    CPU time for df vj and vk    132.99 sec, wall time      6.98 sec
subspace size: 18
Maximum residual norm:  1.10e-05
unconverged states [0]
m & new_m 18 19

iteration 17
beginning of step 17 memory used: 10.19 GB
    CPU time for df vj and vk    172.50 sec, wall time     10.24 sec
    CPU time for df vj and vk    132.52 sec, wall time      6.94 sec
subspace size: 19
Maximum residual norm:  6.25e-06
TDDFT precedure Done

============= TDDFT Calculation Done ==============
after 18 iterations 429.22 s
Final subspace  19
preconditioning cost 0.0350 0.00 %
max_norm =  6.25e-06
Total TDDFT memory used: 10.19 GB
Excited State energies (eV) =
 [3.9054791]
xyzfile = 43_PyrImid_TMIO5.xyz
checkfile = True
method = RKS
functional = wb97x
basis_set = def2-tzvp
density_fit = True
grid_level = 3
nstates = 1
pytd = False
TDA = False
TDDFT = True
dynpol = False
dynpol_omega = []
stapol = False
sTDA = False
sTDDFT = False
Truncate_test = False
truncate_virtual = 40.0
ip_options = [0, 1]
conv_tolerance = 1e-05
initial_TOL = 0.001
precond_TOL = 0.01
extrainitial = 8
max = 30
eigensolver_tol = 1e-05
memory = 50000
verbose = 5
beta = []
alpha = []
|-------- In-house Developed TDDFT Ends ----------|
