curpath /scratch/pbsjobs/job.15992650.hpc
lib.num_threads() =  8
at beginning memory used: 0.04 GB
mol.max_memory 20000


System: uname_result(system='Linux', node='compt299', release='3.10.0-1127.el7.x86_64', version='#1 SMP Tue Feb 18 16:39:12 EST 2020', machine='x86_64', processor='x86_64')  Threads 8
Python 3.7.0 (default, Aug 23 2018, 14:24:33) 
[GCC 6.3.0]
numpy 1.18.1  scipy 1.4.1
Date: Mon Jul 12 14:39:28 2021
PySCF version 1.7.4
PySCF path  /home/zzz6/.local/lib/python3.7/site-packages/pyscf

[CONFIG] conf_file None
[INPUT] verbose = 5
[INPUT] max_memory = 20000 
[INPUT] num. atoms = 36
[INPUT] num. electrons = 146
[INPUT] charge = 0
[INPUT] spin (= nelec alpha-beta = 2S) = 0
[INPUT] symmetry False subgroup None
[INPUT] Mole.unit = angstrom
[INPUT]  1 C     -0.770776205221  -0.810934812406   6.910435180694 AA   -1.456555931199  -1.532444700322  13.058829893071 Bohr
[INPUT]  2 C      0.274362451006  -0.114946085476   6.215462603653 AA    0.518469891266  -0.217216620640  11.745522058381 Bohr
[INPUT]  3 C      0.953194199126   0.974831137340   6.767514665989 AA    1.801275979871   1.842163867271  12.788749262696 Bohr
[INPUT]  4 C      0.597320635556   1.383154759756   8.062251651777 AA    1.128772409753   2.613783683828  15.235447569181 Bohr
[INPUT]  5 C     -0.438119660860   0.705287818263   8.767318137668 AA   -0.827926168813   1.332800815508  16.567830127123 Bohr
[INPUT]  6 C     -1.116093460692  -0.377875129474   8.210852076749 AA   -2.109110970125  -0.714080503989  15.516261674373 Bohr
[INPUT]  7 C     -1.238528027404  -1.841090150700   6.033949970660 AA   -2.340478769392  -3.479156155458  11.402512893876 Bohr
[INPUT]  8 C     -0.494293577861  -1.767636860477   4.856584245874 AA   -0.934079487288  -3.340349553988   9.177614125580 Bohr
[INPUT]  9 H      1.741376098672   1.522122130924   6.242893110315 AA    3.290723906353   2.876393955585  11.797358203429 Bohr
[INPUT] 10 H     -0.737252165038   1.067406223183   9.756113344475 AA   -1.393204676665   2.017105425471  18.436382261273 Bohr
[INPUT] 11 H     -1.917285415333  -0.875283817922   8.767163092853 AA   -3.623144337602  -1.654046697135  16.567537134887 Bohr
[INPUT] 12 H     -2.008079330955  -2.581709970213   6.249569119350 AA   -3.794719971906  -4.878724776762  11.809974032110 Bohr
[INPUT] 13 H      1.014056592313  -0.384191685626   4.236615719315 AA    1.916289234282  -0.726017065168   8.006043404533 Bohr
[INPUT] 14 C     -0.557752125446  -2.589895543981   3.649761569464 AA   -1.053998762488  -4.894193269355   6.897049786250 Bohr
[INPUT] 15 C      0.522808420425  -2.655925730991   2.741216161162 AA    0.987964730219  -5.018972238758   5.180147792827 Bohr
[INPUT] 16 C     -1.712728821248  -3.357824366907   3.361182303837 AA   -3.236588397808  -6.345368427845   6.351714008986 Bohr
[INPUT] 17 C      0.446385021821  -3.440781206494   1.586526814519 AA    0.843545437349  -6.502134134825   2.998101168719 Bohr
[INPUT] 18 H      1.453921720129  -2.119965640114   2.955536368338 AA    2.747513857600  -4.006154453304   5.585154287351 Bohr
[INPUT] 19 C     -1.783952934725  -4.145675429109   2.215566968501 AA   -3.371182465744  -7.834191162354   4.186814781100 Bohr
[INPUT] 20 H     -2.568709461173  -3.313409414253   4.041307802486 AA   -4.854157375195  -6.261436331494   7.636964931766 Bohr
[INPUT] 21 C     -0.710978769575  -4.190627729472   1.300522221802 AA   -1.343555154877  -7.919138698710   2.457630818116 Bohr
[INPUT] 22 H      1.317061131045  -3.500458017908   0.925181666946 AA    2.488884826984  -6.614906964384   1.748339965996 Bohr
[INPUT] 23 H     -2.671871176187  -4.742554801358   1.988979804092 AA   -5.049104763113  -8.962129705307   3.758627097025 Bohr
[INPUT] 24 N      0.425862906199  -0.730853282480   4.988072814994 AA    0.804764259328  -1.381112541126   9.426091509727 Bohr
[INPUT] 25 C      1.327700893572   2.546624539085   8.651818501414 AA    2.508991064192   4.812422920967  16.349567447117 Bohr
[INPUT] 26 N      1.182728397575   2.701831835728  10.029389761089 AA    2.235032751163   5.105722204156  18.952799844974 Bohr
[INPUT] 27 H      1.810584042570   3.373755406828  10.468612514296 AA    3.421507965966   6.375473730176  19.782810556213 Bohr
[INPUT] 28 H      1.059263901314   1.849625840311  10.575466067506 AA    2.001718667122   3.495286271106  19.984734507216 Bohr
[INPUT] 29 C     -0.836524172675  -5.045477146531   0.081581634857 AA   -1.580801582935  -9.534569974696   0.154166946675 Bohr
[INPUT] 30 N      0.098568638362  -4.790435984601  -0.919936674349 AA    0.186267730975  -9.052612028157  -1.738428366463 Bohr
[INPUT] 31 H     -0.074365914399  -5.245987413739  -1.815177570792 AA   -0.140531211217  -9.913479464882  -3.430188476251 Bohr
[INPUT] 32 H      0.416113085246  -3.826182945097  -1.016573952345 AA    0.786339767963  -7.230437868716  -1.921046355298 Bohr
[INPUT] 33 N      1.986640477268   3.335372576619   7.866707649649 AA    3.754206410012   6.302940693196  14.865922959858 Bohr
[INPUT] 34 H      2.469865074736   4.069338196547   8.407255436847 AA    4.667368555879   7.689934699705  15.887410234902 Bohr
[INPUT] 35 N     -1.740344179887  -5.968771427162   0.063861947201 AA   -3.288773862467 -11.279343297466   0.120681589992 Bohr
[INPUT] 36 H     -1.740732288256  -6.466875872094  -0.839626730885 AA   -3.289507280992 -12.220624279815  -1.586664568236 Bohr
[INPUT] ---------------- BASIS SET ---------------- 
[INPUT] l, kappa, [nprim/nctr], expnt,             c_1 c_2 ...
[INPUT] C
[INPUT] 0    0    [6    /1   ]  13575.349682      0.00022245814352
                                2035.233368       0.0017232738252
                                463.22562359      0.0089255715314
                                131.20019598      0.035727984502
                                42.853015891      0.11076259931
                                15.584185766      0.24295627626
[INPUT] 0    0    [2    /1   ]  6.2067138508      0.41440263448
                                2.5764896527      0.23744968655
[INPUT] 0    0    [1    /1   ]  0.57696339419        1
[INPUT] 0    0    [1    /1   ]  0.22972831358        1
[INPUT] 0    0    [1    /1   ]  0.095164440028       1
[INPUT] 1    0    [4    /1   ]  34.697232244      0.0053333657805
                                7.9582622826      0.035864109092
                                2.3780826883      0.14215873329
                                0.81433208183     0.34270471845
[INPUT] 1    0    [1    /1   ]  0.28887547253        1
[INPUT] 1    0    [1    /1   ]  0.10056823671        1
[INPUT] 2    0    [1    /1   ]  1.097                1
[INPUT] 2    0    [1    /1   ]  0.318                1
[INPUT] 3    0    [1    /1   ]  0.761                1
[INPUT] N
[INPUT] 0    0    [6    /1   ]  19730.800647      0.00021887984991
                                2957.8958745      0.0016960708803
                                673.22133595      0.0087954603538
                                190.68249494      0.035359382605
                                62.295441898      0.11095789217
                                22.654161182      0.24982972552
[INPUT] 0    0    [2    /1   ]  8.9791477428      0.40623896148
                                3.686300237       0.24338217176
[INPUT] 0    0    [1    /1   ]  0.84660076805        1
[INPUT] 0    0    [1    /1   ]  0.33647133771        1
[INPUT] 0    0    [1    /1   ]  0.13647653675        1
[INPUT] 1    0    [4    /1   ]  49.20038051       0.0055552416751
                                11.346790537      0.038052379723
                                3.4273972411      0.14953671029
                                1.1785525134      0.3494930523
[INPUT] 1    0    [1    /1   ]  0.41642204972        1
[INPUT] 1    0    [1    /1   ]  0.14260826011        1
[INPUT] 2    0    [1    /1   ]  1.654                1
[INPUT] 2    0    [1    /1   ]  0.469                1
[INPUT] 3    0    [1    /1   ]  1.093                1
[INPUT] H
[INPUT] 0    0    [3    /1   ]  34.061341         0.0060251978
                                5.1235746         0.045021094
                                1.1646626         0.20189726
[INPUT] 0    0    [1    /1   ]  0.32723041           1
[INPUT] 0    0    [1    /1   ]  0.10307241           1
[INPUT] 1    0    [1    /1   ]  0.8                  1

nuclear repulsion = 1437.09149164036
number of shells = 291
number of NR pGTOs = 1086
number of NR cGTOs = 741
basis = def2-tzvp
ecp = {}
CPU time:         1.38
RKS
Density fitting turned on
Molecule built
Calculating SCF Energy...


******** <class 'pyscf.df.df_jk.density_fit.<locals>.DFHF'> ********
method = DFHF-RKS-RHF
initial guess = chkfile
damping factor = 0
level_shift factor = 0
DIIS = <class 'pyscf.scf.diis.CDIIS'>
diis_start_cycle = 1
diis_space = 8
SCF conv_tol = 1e-10
SCF conv_tol_grad = None
SCF max_cycles = 50
direct_scf = True
direct_scf_tol = 1e-13
chkfile to save SCF result = 36_DAPI_wb97x.chk
max_memory 20000 MB (current use 55 MB)
XC functionals = wb97x
small_rho_cutoff = 1e-07
radial grids: 
    Treutler-Ahlrichs [JCP 102, 346 (1995); DOI:10.1063/1.469408] (M4) radial grids
    
becke partition: Becke, JCP 88, 2547 (1988); DOI:10.1063/1.454033
pruning grids: <function nwchem_prune at 0x7f75c537ee18>
grids dens level: 3
symmetrized grids: False
atomic radii adjust function: <function treutler_atomic_radii_adjust at 0x7f75c537ed90>
Set gradient conv threshold to 1e-05
atom C rad-grids = 75, ang-grids = [ 50  50  50  50  50  50  50  50  50  50  50  50  50  50  50  50  50  50
  50  50  50  50  50  86  86  86  86  86  86  86  86  86  86 266 266 266
 266 266 266 266 302 302 302 302 302 302 302 302 302 302 302 302 302 302
 302 302 302 302 302 302 266 266 266 266 266 266 266 266 266 266 266 266
 266 266 266]
atom H rad-grids = 50, ang-grids = [ 50  50  50  50  50  50  50  50  50  50  50  50  50  50  86  86  86  86
 266 266 266 266 302 302 302 302 302 302 302 302 302 302 302 302 302 266
 266 266 266 266 266 266 266 266 266 266 266 266 266 266]
atom N rad-grids = 75, ang-grids = [ 50  50  50  50  50  50  50  50  50  50  50  50  50  50  50  50  50  50
  50  50  50  50  50  86  86  86  86  86  86  86  86  86 266 266 266 266
 266 266 266 302 302 302 302 302 302 302 302 302 302 302 302 302 302 302
 302 302 302 302 266 266 266 266 266 266 266 266 266 266 266 266 266 266
 266 266 266]
tot grids = 443022
Drop grids 74924
    CPU time for setting up grids     33.25 sec, wall time      4.32 sec
nelec by numeric integration = 145.99997185547616
    CPU time for vxc     53.16 sec, wall time      7.27 sec
******** <class 'pyscf.df.df.DF'> ********
auxbasis = None
max_memory = 20000
_cderi_to_save = /tmp/job.15992650.hpc/tmpvatdnom7
Default auxbasis def2-tzvp-jkfit is used for C def2-tzvp
Default auxbasis def2-tzvp-jkfit is used for N def2-tzvp
Default auxbasis def2-tzvp-jkfit is used for H def2-tzvp
num shells = 615, num cGTOs = 1855
size of aux basis 1855
int3c2e [1/1], AO [0:291], nrow = 274911
    CPU time for cholesky_eri     64.93 sec, wall time     15.28 sec
    CPU time for df vj and vk    181.02 sec, wall time     31.26 sec
Create RSH-DF object <pyscf.df.df.DF object at 0x7f75c34b3780> for omega=0.3
******** <class 'pyscf.df.df.DF'> ********
auxbasis = None
max_memory = 20000
_cderi_to_save = /tmp/job.15992650.hpc/tmphftj7fya
Default auxbasis def2-tzvp-jkfit is used for C def2-tzvp
Default auxbasis def2-tzvp-jkfit is used for N def2-tzvp
Default auxbasis def2-tzvp-jkfit is used for H def2-tzvp
num shells = 615, num cGTOs = 1855
size of aux basis 1479
int3c2e [1/2], AO [0:286], nrow = 265356
int3c2e [2/2], AO [286:291], nrow = 9555
    CPU time for cholesky_eri     84.59 sec, wall time     12.71 sec
    CPU time for df vj and vk    177.07 sec, wall time     24.87 sec
E1 = -4061.6232294947786  Ecoul = 1858.7580332141906  Exc = -126.81580390313928
init E= -892.589508543365
cond(S) = 1356611.82605575
    CPU time for initialize scf    447.21 sec, wall time     68.45 sec
  HOMO = -0.282973440766992  LUMO = 0.00346289511720395
  mo_energy =
[-1.44429150e+01 -1.44189007e+01 -1.44094787e+01 -1.43626132e+01
 -1.43520297e+01 -1.03438762e+01 -1.03340774e+01 -1.03101637e+01
 -1.02975727e+01 -1.02940656e+01 -1.02833229e+01 -1.02814902e+01
 -1.02803156e+01 -1.02745475e+01 -1.02714032e+01 -1.02703254e+01
 -1.02664940e+01 -1.02642617e+01 -1.02632274e+01 -1.02616214e+01
 -1.02557018e+01 -1.11573018e+00 -1.08551677e+00 -1.07550009e+00
 -1.00198684e+00 -9.80218910e-01 -9.76403583e-01 -9.67166343e-01
 -9.24300304e-01 -9.06739247e-01 -8.86728689e-01 -8.64647723e-01
 -8.50746030e-01 -7.89495023e-01 -7.47247525e-01 -7.42638186e-01
 -7.34979380e-01 -7.09219509e-01 -6.94490462e-01 -6.78923448e-01
 -6.66692815e-01 -6.51523346e-01 -6.36529182e-01 -6.29789119e-01
 -6.10974206e-01 -5.93368542e-01 -5.86862541e-01 -5.77726003e-01
 -5.66080873e-01 -5.52270920e-01 -5.47537332e-01 -5.41561532e-01
 -5.35183300e-01 -5.33425045e-01 -5.21934014e-01 -5.15365450e-01
 -5.02985334e-01 -4.98232635e-01 -4.79689068e-01 -4.71947846e-01
 -4.64531473e-01 -4.51696718e-01 -4.41550378e-01 -4.39682208e-01
 -3.92758243e-01 -3.82272666e-01 -3.73737006e-01 -3.70156156e-01
 -3.61103420e-01 -3.49971942e-01 -3.41332221e-01 -3.12758378e-01
 -2.82973441e-01  3.46289512e-03  4.99596048e-02  5.74711931e-02
  7.57937647e-02  1.00709224e-01  1.10340050e-01  1.11415264e-01
  1.19515890e-01  1.41108120e-01  1.44918659e-01  1.47741537e-01
  1.55148104e-01  1.63848468e-01  1.64905328e-01  1.70605272e-01
  1.79491215e-01  1.82247625e-01  1.84657101e-01  1.93664932e-01
  2.00217286e-01  2.04505107e-01  2.12019731e-01  2.21080483e-01
  2.33603580e-01  2.36432203e-01  2.41382951e-01  2.50240739e-01
  2.58804723e-01  2.60234547e-01  2.68691405e-01  2.71460830e-01
  2.76805674e-01  2.88624462e-01  2.95514788e-01  2.96869751e-01
  2.97539070e-01  3.04405227e-01  3.12314360e-01  3.14947785e-01
  3.16615696e-01  3.22945169e-01  3.30195883e-01  3.37109183e-01
  3.38254074e-01  3.40304509e-01  3.42193686e-01  3.44285443e-01
  3.51883461e-01  3.63175331e-01  3.65866690e-01  3.71928458e-01
  3.75212668e-01  3.81280628e-01  3.85291464e-01  3.91929186e-01
  3.99745805e-01  4.02310149e-01  4.11680832e-01  4.12402092e-01
  4.20248453e-01  4.21742547e-01  4.29824009e-01  4.30523293e-01
  4.36044356e-01  4.36922038e-01  4.45163314e-01  4.46895228e-01
  4.51517998e-01  4.54049344e-01  4.60950782e-01  4.65093428e-01
  4.67240234e-01  4.72607854e-01  4.77912387e-01  4.79747060e-01
  4.89033566e-01  4.93707678e-01  4.97961567e-01  4.99732712e-01
  5.06032628e-01  5.08159039e-01  5.08888443e-01  5.19306133e-01
  5.24849933e-01  5.29748301e-01  5.34433445e-01  5.36909865e-01
  5.47177539e-01  5.49432717e-01  5.51247700e-01  5.53384811e-01
  5.59329944e-01  5.65122551e-01  5.72345574e-01  5.75619394e-01
  5.78870634e-01  5.84129778e-01  5.86646572e-01  5.93894219e-01
  5.99992301e-01  6.09217904e-01  6.10767020e-01  6.17905064e-01
  6.22539037e-01  6.28896034e-01  6.33160696e-01  6.39732262e-01
  6.47929403e-01  6.54608274e-01  6.67596064e-01  6.72263808e-01
  6.75940803e-01  6.86603665e-01  6.91983184e-01  6.99604356e-01
  7.03549038e-01  7.07990338e-01  7.14878925e-01  7.15853456e-01
  7.28692665e-01  7.29860237e-01  7.40649044e-01  7.45767395e-01
  7.49583105e-01  7.54174858e-01  7.59655150e-01  7.66250943e-01
  7.71420041e-01  7.79170672e-01  7.84562557e-01  7.92469520e-01
  7.93630632e-01  7.97549824e-01  8.04844851e-01  8.10593283e-01
  8.14154793e-01  8.25387379e-01  8.28651392e-01  8.36228883e-01
  8.43898976e-01  8.47363090e-01  8.51310676e-01  8.56084297e-01
  8.60802653e-01  8.63415218e-01  8.79654230e-01  8.85208818e-01
  8.92336854e-01  9.03667004e-01  9.07262967e-01  9.17178387e-01
  9.26559091e-01  9.30633995e-01  9.35433306e-01  9.50003509e-01
  9.51075381e-01  9.60969847e-01  9.68189142e-01  9.75870280e-01
  9.83948719e-01  1.00456185e+00  1.00991488e+00  1.01288605e+00
  1.01470433e+00  1.03670592e+00  1.04320267e+00  1.04762346e+00
  1.05314275e+00  1.07006872e+00  1.07125934e+00  1.08497699e+00
  1.09948540e+00  1.11199979e+00  1.12701640e+00  1.13527438e+00
  1.14772891e+00  1.15165428e+00  1.16011578e+00  1.17096011e+00
  1.17303181e+00  1.18436457e+00  1.19255736e+00  1.19839192e+00
  1.20621335e+00  1.21531805e+00  1.22093582e+00  1.23656032e+00
  1.24439499e+00  1.25474376e+00  1.26535122e+00  1.27352498e+00
  1.29737800e+00  1.30313590e+00  1.31027492e+00  1.31198007e+00
  1.32700145e+00  1.33097533e+00  1.33611823e+00  1.34757700e+00
  1.35161136e+00  1.36068779e+00  1.36823742e+00  1.37600824e+00
  1.38120396e+00  1.38644885e+00  1.39668481e+00  1.39840860e+00
  1.40257907e+00  1.41216532e+00  1.41436742e+00  1.41748861e+00
  1.43081709e+00  1.44025428e+00  1.45440663e+00  1.46109830e+00
  1.46658862e+00  1.47773557e+00  1.48137820e+00  1.49599777e+00
  1.50624453e+00  1.51185394e+00  1.52577277e+00  1.53950614e+00
  1.55101843e+00  1.55427395e+00  1.56220992e+00  1.56719281e+00
  1.58363106e+00  1.58641136e+00  1.58841693e+00  1.59904901e+00
  1.60608262e+00  1.60887679e+00  1.61243013e+00  1.62283756e+00
  1.62726757e+00  1.62966853e+00  1.64123799e+00  1.64759441e+00
  1.65327572e+00  1.66494476e+00  1.66721658e+00  1.67788921e+00
  1.68731840e+00  1.69555720e+00  1.69896014e+00  1.70082465e+00
  1.70712568e+00  1.71007491e+00  1.71755457e+00  1.73321308e+00
  1.73716164e+00  1.75016768e+00  1.75107306e+00  1.75821312e+00
  1.77057834e+00  1.77905033e+00  1.79238214e+00  1.79756943e+00
  1.80268389e+00  1.80749554e+00  1.81684352e+00  1.82596060e+00
  1.83183789e+00  1.83479345e+00  1.85168382e+00  1.86140289e+00
  1.88163915e+00  1.88972362e+00  1.89094896e+00  1.90014938e+00
  1.90523194e+00  1.91434010e+00  1.92480480e+00  1.93553622e+00
  1.94480271e+00  1.95874524e+00  1.96740672e+00  1.97489503e+00
  1.98377464e+00  1.98656637e+00  1.99507189e+00  2.00442087e+00
  2.01398139e+00  2.01998448e+00  2.03891341e+00  2.05359486e+00
  2.05844921e+00  2.07564247e+00  2.08455671e+00  2.09595259e+00
  2.10155272e+00  2.10950740e+00  2.11598022e+00  2.12040854e+00
  2.12220426e+00  2.12789003e+00  2.13449505e+00  2.14716527e+00
  2.15160343e+00  2.15800516e+00  2.16253512e+00  2.16851521e+00
  2.17962456e+00  2.18990661e+00  2.19698408e+00  2.20233332e+00
  2.22230304e+00  2.23271113e+00  2.24216370e+00  2.24812874e+00
  2.25906276e+00  2.26612406e+00  2.27791954e+00  2.29389015e+00
  2.30427005e+00  2.32043220e+00  2.33262318e+00  2.34998492e+00
  2.36729247e+00  2.36950868e+00  2.38310674e+00  2.38525375e+00
  2.39135555e+00  2.40066715e+00  2.40881623e+00  2.41836121e+00
  2.43046360e+00  2.43773843e+00  2.44874315e+00  2.45699215e+00
  2.47349355e+00  2.47630933e+00  2.48916005e+00  2.49680468e+00
  2.50825500e+00  2.51502298e+00  2.52888560e+00  2.55383724e+00
  2.55925585e+00  2.56752981e+00  2.58036631e+00  2.59301954e+00
  2.60303256e+00  2.61157088e+00  2.63454861e+00  2.63725897e+00
  2.65768558e+00  2.65987766e+00  2.66373784e+00  2.67503148e+00
  2.67936101e+00  2.68818754e+00  2.69709593e+00  2.70455837e+00
  2.70743058e+00  2.71257117e+00  2.73376277e+00  2.74352220e+00
  2.74952742e+00  2.75868865e+00  2.76689895e+00  2.77754924e+00
  2.78042030e+00  2.78823626e+00  2.79676919e+00  2.80790364e+00
  2.81940422e+00  2.82673972e+00  2.83097612e+00  2.83438303e+00
  2.84526735e+00  2.85037159e+00  2.86537189e+00  2.86626990e+00
  2.87463205e+00  2.87969444e+00  2.89311442e+00  2.90739844e+00
  2.91035131e+00  2.91520543e+00  2.92185493e+00  2.92826081e+00
  2.93190111e+00  2.93393493e+00  2.94863384e+00  2.95592645e+00
  2.96103388e+00  2.97108908e+00  2.97196842e+00  2.98174369e+00
  2.98801479e+00  2.99460794e+00  3.00083972e+00  3.01223245e+00
  3.02598532e+00  3.03206031e+00  3.03922197e+00  3.04162545e+00
  3.05026266e+00  3.05306257e+00  3.06542036e+00  3.07090943e+00
  3.08544187e+00  3.08867112e+00  3.10231088e+00  3.10527077e+00
  3.11368370e+00  3.12597207e+00  3.13247577e+00  3.13655961e+00
  3.14430132e+00  3.15189298e+00  3.15882672e+00  3.16410310e+00
  3.17756110e+00  3.19051827e+00  3.19594737e+00  3.20651663e+00
  3.21785238e+00  3.22862090e+00  3.23248744e+00  3.23553430e+00
  3.24259419e+00  3.24764599e+00  3.25303821e+00  3.25501233e+00
  3.26329668e+00  3.27063409e+00  3.27253937e+00  3.28267065e+00
  3.28378128e+00  3.29031457e+00  3.29339725e+00  3.29434336e+00
  3.30758059e+00  3.30975775e+00  3.32622494e+00  3.33459772e+00
  3.33938523e+00  3.34580430e+00  3.35153038e+00  3.35563136e+00
  3.36359543e+00  3.36901005e+00  3.38165606e+00  3.38702959e+00
  3.39353666e+00  3.39783504e+00  3.40463950e+00  3.41944367e+00
  3.42093203e+00  3.43615315e+00  3.44600184e+00  3.44926651e+00
  3.45781478e+00  3.46426455e+00  3.47224312e+00  3.47390828e+00
  3.48422497e+00  3.49150292e+00  3.49666955e+00  3.50609373e+00
  3.51380806e+00  3.52041365e+00  3.53050638e+00  3.53400330e+00
  3.54070530e+00  3.54662300e+00  3.55354972e+00  3.55963799e+00
  3.56584857e+00  3.57088557e+00  3.57707081e+00  3.58243382e+00
  3.58962386e+00  3.59862313e+00  3.60786215e+00  3.61393316e+00
  3.62944068e+00  3.63666620e+00  3.64271177e+00  3.65160445e+00
  3.66177084e+00  3.67301389e+00  3.67934835e+00  3.69435944e+00
  3.70304573e+00  3.70810129e+00  3.71853649e+00  3.72601761e+00
  3.74053217e+00  3.76009242e+00  3.78915366e+00  3.80418038e+00
  3.81226555e+00  3.82027785e+00  3.84010943e+00  3.84972527e+00
  3.85174194e+00  3.86358021e+00  3.87458201e+00  3.89079485e+00
  3.89874545e+00  3.91793944e+00  3.92076305e+00  3.92629169e+00
  3.94559028e+00  3.95463256e+00  3.95925185e+00  3.97191029e+00
  3.97658329e+00  3.99655927e+00  4.01883015e+00  4.03309614e+00
  4.06167012e+00  4.06996266e+00  4.08236070e+00  4.08882346e+00
  4.11061917e+00  4.12466939e+00  4.13702195e+00  4.14135810e+00
  4.17341814e+00  4.19446301e+00  4.20497749e+00  4.21308904e+00
  4.22567265e+00  4.22593653e+00  4.24953483e+00  4.26827890e+00
  4.27519035e+00  4.28295609e+00  4.29326216e+00  4.30170256e+00
  4.31589663e+00  4.32537895e+00  4.33088981e+00  4.34184133e+00
  4.35418535e+00  4.35878710e+00  4.36196321e+00  4.38237052e+00
  4.39680661e+00  4.40054660e+00  4.41421363e+00  4.41915711e+00
  4.43250553e+00  4.43936297e+00  4.45633150e+00  4.46156255e+00
  4.47282442e+00  4.49601694e+00  4.50450088e+00  4.50818094e+00
  4.51625801e+00  4.56925068e+00  4.58928317e+00  4.59607920e+00
  4.62338918e+00  4.64611015e+00  4.65598463e+00  4.66036996e+00
  4.67225663e+00  4.69024533e+00  4.69726038e+00  4.70442763e+00
  4.72878861e+00  4.75360962e+00  4.76674532e+00  4.78008404e+00
  4.79179857e+00  4.81001927e+00  4.81502937e+00  4.82253617e+00
  4.83653902e+00  4.85483584e+00  4.86182416e+00  4.88963233e+00
  4.89916365e+00  4.91841691e+00  4.92240734e+00  4.92966188e+00
  4.94663578e+00  4.94911861e+00  4.95743809e+00  4.96006341e+00
  4.99037002e+00  4.99658415e+00  5.00647018e+00  5.01233612e+00
  5.02095645e+00  5.04015164e+00  5.05022467e+00  5.07259990e+00
  5.09158738e+00  5.09257102e+00  5.13190535e+00  5.14073059e+00
  5.15144344e+00  5.16245334e+00  5.17817417e+00  5.19162395e+00
  5.20872428e+00  5.22384503e+00  5.24033936e+00  5.25276543e+00
  5.25520702e+00  5.26481440e+00  5.29596548e+00  5.29604799e+00
  5.31192943e+00  5.32735844e+00  5.33111392e+00  5.34214122e+00
  5.36413473e+00  5.36955124e+00  5.41338340e+00  5.42166596e+00
  5.44490536e+00  5.45900207e+00  5.47713895e+00  5.48191203e+00
  5.50465097e+00  5.52486953e+00  5.53887484e+00  5.57268196e+00
  5.59692381e+00  5.60961576e+00  5.62116010e+00  5.63402249e+00
  5.66265073e+00  5.67611474e+00  5.71065988e+00  5.73724399e+00
  5.80205381e+00  5.82336943e+00  5.83128993e+00  5.85483495e+00
  5.88727251e+00  5.98596373e+00  6.03126478e+00  6.03678618e+00
  6.13774683e+00  6.24273154e+00  6.30192868e+00  6.36276130e+00
  2.23808177e+01  2.25063682e+01  2.26507923e+01  2.27238669e+01
  2.27400620e+01  2.27770335e+01  2.27851086e+01  2.28668746e+01
  2.28927741e+01  2.29590463e+01  2.30629779e+01  2.31656983e+01
  2.32192980e+01  2.32816720e+01  2.34588149e+01  2.37092423e+01
  3.20098499e+01  3.20193688e+01  3.21128774e+01  3.21284406e+01
  3.25461173e+01]
nelec by numeric integration = 145.99997185546292
    CPU time for vxc     52.24 sec, wall time      7.00 sec
    CPU time for df vj and vk    115.21 sec, wall time     16.11 sec
    CPU time for df vj and vk     92.03 sec, wall time     11.54 sec
E1 = -4061.6232241689045  Ecoul = 1858.7580282820352  Exc = -126.81580429685128
cycle= 1 E= -892.589508543358  delta_E= 7.28e-12  |g|= 7e-06  |ddm|= 2.21e-05
    CPU time for cycle= 1    260.91 sec, wall time     35.19 sec
  HOMO = -0.282973609791439  LUMO = 0.00346264280486929
  mo_energy =
[-1.44429174e+01 -1.44188994e+01 -1.44094747e+01 -1.43626128e+01
 -1.43520348e+01 -1.03438771e+01 -1.03340763e+01 -1.03101661e+01
 -1.02975741e+01 -1.02940672e+01 -1.02833235e+01 -1.02814893e+01
 -1.02803153e+01 -1.02745476e+01 -1.02714034e+01 -1.02703247e+01
 -1.02664925e+01 -1.02642591e+01 -1.02632292e+01 -1.02616188e+01
 -1.02557009e+01 -1.11573147e+00 -1.08551670e+00 -1.07549937e+00
 -1.00198708e+00 -9.80218794e-01 -9.76403247e-01 -9.67166648e-01
 -9.24300760e-01 -9.06739359e-01 -8.86728693e-01 -8.64647533e-01
 -8.50746038e-01 -7.89495211e-01 -7.47247501e-01 -7.42638311e-01
 -7.34979378e-01 -7.09219596e-01 -6.94490626e-01 -6.78923190e-01
 -6.66692861e-01 -6.51522999e-01 -6.36528363e-01 -6.29789020e-01
 -6.10974507e-01 -5.93368402e-01 -5.86862793e-01 -5.77726037e-01
 -5.66081187e-01 -5.52271056e-01 -5.47537343e-01 -5.41561448e-01
 -5.35183352e-01 -5.33425323e-01 -5.21934116e-01 -5.15365517e-01
 -5.02985079e-01 -4.98232499e-01 -4.79689127e-01 -4.71947834e-01
 -4.64531257e-01 -4.51696897e-01 -4.41550019e-01 -4.39681869e-01
 -3.92758370e-01 -3.82272600e-01 -3.73738247e-01 -3.70156384e-01
 -3.61103378e-01 -3.49971904e-01 -3.41332467e-01 -3.12758388e-01
 -2.82973610e-01  3.46264280e-03  4.99595572e-02  5.74710423e-02
  7.57941800e-02  1.00709232e-01  1.10339826e-01  1.11415369e-01
  1.19515638e-01  1.41108148e-01  1.44918741e-01  1.47741842e-01
  1.55148049e-01  1.63848597e-01  1.64905270e-01  1.70605131e-01
  1.79491093e-01  1.82247649e-01  1.84656835e-01  1.93665073e-01
  2.00217230e-01  2.04505113e-01  2.12019806e-01  2.21080210e-01
  2.33603619e-01  2.36432249e-01  2.41382880e-01  2.50240774e-01
  2.58804861e-01  2.60234578e-01  2.68691384e-01  2.71460752e-01
  2.76805668e-01  2.88624435e-01  2.95514592e-01  2.96869730e-01
  2.97538947e-01  3.04405175e-01  3.12314272e-01  3.14947949e-01
  3.16615605e-01  3.22945170e-01  3.30195956e-01  3.37109156e-01
  3.38253987e-01  3.40304612e-01  3.42193677e-01  3.44285351e-01
  3.51883486e-01  3.63175307e-01  3.65866595e-01  3.71928524e-01
  3.75212609e-01  3.81280611e-01  3.85291467e-01  3.91929259e-01
  3.99745894e-01  4.02310091e-01  4.11680867e-01  4.12401953e-01
  4.20248451e-01  4.21742427e-01  4.29823891e-01  4.30523278e-01
  4.36044350e-01  4.36922048e-01  4.45163164e-01  4.46895140e-01
  4.51517985e-01  4.54049318e-01  4.60950939e-01  4.65093546e-01
  4.67240241e-01  4.72607766e-01  4.77912412e-01  4.79747269e-01
  4.89033633e-01  4.93707586e-01  4.97961534e-01  4.99732549e-01
  5.06032743e-01  5.08158998e-01  5.08888335e-01  5.19306183e-01
  5.24849882e-01  5.29748242e-01  5.34433512e-01  5.36909811e-01
  5.47177532e-01  5.49432678e-01  5.51247659e-01  5.53384880e-01
  5.59330073e-01  5.65122391e-01  5.72345681e-01  5.75619305e-01
  5.78870478e-01  5.84129826e-01  5.86646578e-01  5.93894043e-01
  5.99992455e-01  6.09217692e-01  6.10766937e-01  6.17905222e-01
  6.22539087e-01  6.28896082e-01  6.33160872e-01  6.39732328e-01
  6.47929400e-01  6.54608116e-01  6.67596063e-01  6.72263814e-01
  6.75940586e-01  6.86603430e-01  6.91983108e-01  6.99604313e-01
  7.03548896e-01  7.07990208e-01  7.14878971e-01  7.15853233e-01
  7.28692755e-01  7.29860082e-01  7.40648942e-01  7.45767284e-01
  7.49583003e-01  7.54174847e-01  7.59655266e-01  7.66250738e-01
  7.71419918e-01  7.79170444e-01  7.84562416e-01  7.92469372e-01
  7.93630450e-01  7.97550029e-01  8.04844680e-01  8.10593306e-01
  8.14154890e-01  8.25387559e-01  8.28651331e-01  8.36228894e-01
  8.43898978e-01  8.47363051e-01  8.51310539e-01  8.56084280e-01
  8.60802621e-01  8.63415164e-01  8.79654270e-01  8.85208710e-01
  8.92336828e-01  9.03666992e-01  9.07262961e-01  9.17178177e-01
  9.26558942e-01  9.30634025e-01  9.35433212e-01  9.50003539e-01
  9.51075610e-01  9.60969726e-01  9.68189136e-01  9.75870304e-01
  9.83948612e-01  1.00456161e+00  1.00991477e+00  1.01288595e+00
  1.01470427e+00  1.03670589e+00  1.04320277e+00  1.04762351e+00
  1.05314263e+00  1.07006890e+00  1.07125940e+00  1.08497698e+00
  1.09948559e+00  1.11199986e+00  1.12701633e+00  1.13527436e+00
  1.14772895e+00  1.15165434e+00  1.16011563e+00  1.17096003e+00
  1.17303202e+00  1.18436436e+00  1.19255740e+00  1.19839201e+00
  1.20621329e+00  1.21531801e+00  1.22093560e+00  1.23656035e+00
  1.24439483e+00  1.25474355e+00  1.26535115e+00  1.27352519e+00
  1.29737813e+00  1.30313574e+00  1.31027486e+00  1.31198000e+00
  1.32700139e+00  1.33097524e+00  1.33611818e+00  1.34757701e+00
  1.35161130e+00  1.36068781e+00  1.36823745e+00  1.37600833e+00
  1.38120402e+00  1.38644883e+00  1.39668466e+00  1.39840847e+00
  1.40257916e+00  1.41216534e+00  1.41436744e+00  1.41748877e+00
  1.43081712e+00  1.44025422e+00  1.45440667e+00  1.46109831e+00
  1.46658877e+00  1.47773557e+00  1.48137826e+00  1.49599767e+00
  1.50624424e+00  1.51185395e+00  1.52577268e+00  1.53950611e+00
  1.55101842e+00  1.55427403e+00  1.56220986e+00  1.56719298e+00
  1.58363098e+00  1.58641151e+00  1.58841698e+00  1.59904907e+00
  1.60608271e+00  1.60887683e+00  1.61243010e+00  1.62283763e+00
  1.62726757e+00  1.62966824e+00  1.64123830e+00  1.64759436e+00
  1.65327565e+00  1.66494463e+00  1.66721643e+00  1.67788941e+00
  1.68731836e+00  1.69555703e+00  1.69896003e+00  1.70082470e+00
  1.70712578e+00  1.71007482e+00  1.71755452e+00  1.73321286e+00
  1.73716170e+00  1.75016759e+00  1.75107301e+00  1.75821313e+00
  1.77057801e+00  1.77905077e+00  1.79238223e+00  1.79756953e+00
  1.80268369e+00  1.80749545e+00  1.81684332e+00  1.82596072e+00
  1.83183789e+00  1.83479334e+00  1.85168367e+00  1.86140295e+00
  1.88163928e+00  1.88972369e+00  1.89094883e+00  1.90014918e+00
  1.90523187e+00  1.91434013e+00  1.92480477e+00  1.93553600e+00
  1.94480262e+00  1.95874539e+00  1.96740669e+00  1.97489509e+00
  1.98377522e+00  1.98656616e+00  1.99507161e+00  2.00442120e+00
  2.01398139e+00  2.01998446e+00  2.03891340e+00  2.05359464e+00
  2.05844932e+00  2.07564221e+00  2.08455649e+00  2.09595255e+00
  2.10155260e+00  2.10950755e+00  2.11598020e+00  2.12040852e+00
  2.12220409e+00  2.12789012e+00  2.13449496e+00  2.14716511e+00
  2.15160329e+00  2.15800491e+00  2.16253474e+00  2.16851504e+00
  2.17962461e+00  2.18990650e+00  2.19698413e+00  2.20233275e+00
  2.22230298e+00  2.23271118e+00  2.24216363e+00  2.24812869e+00
  2.25906302e+00  2.26612392e+00  2.27791947e+00  2.29389029e+00
  2.30427009e+00  2.32043211e+00  2.33262297e+00  2.34998503e+00
  2.36729245e+00  2.36950866e+00  2.38310671e+00  2.38525343e+00
  2.39135544e+00  2.40066706e+00  2.40881630e+00  2.41836128e+00
  2.43046352e+00  2.43773821e+00  2.44874303e+00  2.45699247e+00
  2.47349379e+00  2.47630925e+00  2.48916004e+00  2.49680410e+00
  2.50825504e+00  2.51502284e+00  2.52888614e+00  2.55383751e+00
  2.55925590e+00  2.56752965e+00  2.58036654e+00  2.59301977e+00
  2.60303267e+00  2.61157069e+00  2.63454883e+00  2.63725915e+00
  2.65768567e+00  2.65987766e+00  2.66373760e+00  2.67503140e+00
  2.67936117e+00  2.68818748e+00  2.69709606e+00  2.70455850e+00
  2.70743088e+00  2.71257101e+00  2.73376252e+00  2.74352216e+00
  2.74952760e+00  2.75868871e+00  2.76689898e+00  2.77754923e+00
  2.78042040e+00  2.78823617e+00  2.79676923e+00  2.80790364e+00
  2.81940417e+00  2.82673960e+00  2.83097617e+00  2.83438285e+00
  2.84526762e+00  2.85037155e+00  2.86537187e+00  2.86627014e+00
  2.87463206e+00  2.87969438e+00  2.89311450e+00  2.90739854e+00
  2.91035128e+00  2.91520547e+00  2.92185499e+00  2.92826069e+00
  2.93190096e+00  2.93393494e+00  2.94863383e+00  2.95592640e+00
  2.96103399e+00  2.97108898e+00  2.97196877e+00  2.98174362e+00
  2.98801487e+00  2.99460784e+00  3.00083982e+00  3.01223249e+00
  3.02598552e+00  3.03206029e+00  3.03922186e+00  3.04162543e+00
  3.05026279e+00  3.05306239e+00  3.06542040e+00  3.07090966e+00
  3.08544182e+00  3.08867107e+00  3.10231091e+00  3.10527081e+00
  3.11368372e+00  3.12597216e+00  3.13247582e+00  3.13655968e+00
  3.14430151e+00  3.15189307e+00  3.15882660e+00  3.16410298e+00
  3.17756117e+00  3.19051800e+00  3.19594726e+00  3.20651645e+00
  3.21785234e+00  3.22862092e+00  3.23248753e+00  3.23553432e+00
  3.24259436e+00  3.24764588e+00  3.25303803e+00  3.25501211e+00
  3.26329667e+00  3.27063406e+00  3.27253935e+00  3.28267059e+00
  3.28378114e+00  3.29031463e+00  3.29339741e+00  3.29434322e+00
  3.30758057e+00  3.30975789e+00  3.32622488e+00  3.33459763e+00
  3.33938519e+00  3.34580433e+00  3.35153035e+00  3.35563123e+00
  3.36359549e+00  3.36900998e+00  3.38165630e+00  3.38702957e+00
  3.39353657e+00  3.39783510e+00  3.40463935e+00  3.41944383e+00
  3.42093214e+00  3.43615321e+00  3.44600179e+00  3.44926643e+00
  3.45781472e+00  3.46426453e+00  3.47224309e+00  3.47390818e+00
  3.48422486e+00  3.49150279e+00  3.49666955e+00  3.50609391e+00
  3.51380799e+00  3.52041356e+00  3.53050638e+00  3.53400333e+00
  3.54070571e+00  3.54662314e+00  3.55354973e+00  3.55963784e+00
  3.56584851e+00  3.57088574e+00  3.57707081e+00  3.58243377e+00
  3.58962388e+00  3.59862302e+00  3.60786209e+00  3.61393311e+00
  3.62944068e+00  3.63666619e+00  3.64271168e+00  3.65160465e+00
  3.66177100e+00  3.67301381e+00  3.67934823e+00  3.69435947e+00
  3.70304576e+00  3.70810127e+00  3.71853641e+00  3.72601751e+00
  3.74053202e+00  3.76009214e+00  3.78915355e+00  3.80418049e+00
  3.81226562e+00  3.82027780e+00  3.84010933e+00  3.84972530e+00
  3.85174177e+00  3.86357989e+00  3.87458196e+00  3.89079463e+00
  3.89874545e+00  3.91793919e+00  3.92076306e+00  3.92629170e+00
  3.94559017e+00  3.95463262e+00  3.95925173e+00  3.97191024e+00
  3.97658355e+00  3.99655932e+00  4.01882994e+00  4.03309634e+00
  4.06167006e+00  4.06996262e+00  4.08236062e+00  4.08882315e+00
  4.11061896e+00  4.12466993e+00  4.13702175e+00  4.14135787e+00
  4.17341782e+00  4.19446280e+00  4.20497776e+00  4.21308853e+00
  4.22567237e+00  4.22593641e+00  4.24953458e+00  4.26827871e+00
  4.27519030e+00  4.28295593e+00  4.29326200e+00  4.30170248e+00
  4.31589693e+00  4.32537891e+00  4.33088988e+00  4.34184125e+00
  4.35418521e+00  4.35878723e+00  4.36196315e+00  4.38237076e+00
  4.39680662e+00  4.40054644e+00  4.41421377e+00  4.41915716e+00
  4.43250584e+00  4.43936285e+00  4.45633144e+00  4.46156208e+00
  4.47282448e+00  4.49601687e+00  4.50450085e+00  4.50818173e+00
  4.51625807e+00  4.56925090e+00  4.58928318e+00  4.59607917e+00
  4.62338959e+00  4.64611010e+00  4.65598456e+00  4.66036988e+00
  4.67225646e+00  4.69024519e+00  4.69726050e+00  4.70442761e+00
  4.72878839e+00  4.75360942e+00  4.76674535e+00  4.78008273e+00
  4.79179873e+00  4.81001935e+00  4.81502924e+00  4.82253665e+00
  4.83653926e+00  4.85483595e+00  4.86182412e+00  4.88963277e+00
  4.89916299e+00  4.91841668e+00  4.92240723e+00  4.92966195e+00
  4.94663579e+00  4.94911878e+00  4.95743836e+00  4.96006362e+00
  4.99036965e+00  4.99658397e+00  5.00647027e+00  5.01233576e+00
  5.02095614e+00  5.04015132e+00  5.05022399e+00  5.07259951e+00
  5.09158730e+00  5.09257101e+00  5.13190542e+00  5.14073003e+00
  5.15144315e+00  5.16245346e+00  5.17817420e+00  5.19162418e+00
  5.20872433e+00  5.22384500e+00  5.24033957e+00  5.25276538e+00
  5.25520685e+00  5.26481450e+00  5.29596561e+00  5.29604777e+00
  5.31192965e+00  5.32735783e+00  5.33111335e+00  5.34214077e+00
  5.36413439e+00  5.36955090e+00  5.41338375e+00  5.42166545e+00
  5.44490521e+00  5.45900188e+00  5.47713881e+00  5.48191164e+00
  5.50465057e+00  5.52486936e+00  5.53887501e+00  5.57268195e+00
  5.59692358e+00  5.60961546e+00  5.62115990e+00  5.63402250e+00
  5.66265069e+00  5.67611468e+00  5.71065947e+00  5.73724360e+00
  5.80205343e+00  5.82336884e+00  5.83128955e+00  5.85483388e+00
  5.88727200e+00  5.98596287e+00  6.03126492e+00  6.03678706e+00
  6.13774564e+00  6.24273105e+00  6.30192841e+00  6.36276079e+00
  2.23808178e+01  2.25063693e+01  2.26507928e+01  2.27238669e+01
  2.27400624e+01  2.27770340e+01  2.27851092e+01  2.28668748e+01
  2.28927736e+01  2.29590465e+01  2.30629781e+01  2.31656976e+01
  2.32192986e+01  2.32816714e+01  2.34588142e+01  2.37092420e+01
  3.20098509e+01  3.20193714e+01  3.21128778e+01  3.21284371e+01
  3.25461150e+01]
nelec by numeric integration = 145.99997185548614
    CPU time for vxc     51.91 sec, wall time      6.95 sec
    CPU time for df vj and vk    113.80 sec, wall time     15.07 sec
    CPU time for df vj and vk     92.25 sec, wall time     11.57 sec
E1 = -4061.623233952477  Ecoul = 1858.7580381422213  Exc = -126.8158043734592
Extra cycle  E= -892.589508543353  delta_E= 5e-12  |g|= 8.96e-06  |ddm|= 2.77e-05
    CPU time for scf_cycle    967.57 sec, wall time    137.79 sec
    CPU time for SCF    967.57 sec, wall time    137.79 sec
converged SCF energy = -892.589508543353
SCF Done after 137.82 seconds
after SCF memory used: 7.27 GB
Converting <class 'pyscf.df.df_jk.density_fit.<locals>.DFHF'> to RHF
Converting <class 'pyscf.df.df_jk.density_fit.<locals>.DFHF'> to RHF
hdiag shape (48764,)
n_occ =  73
n_vir =  668
max_vir =  181
A_size =  48764
A_reduced_size = 13213
a_x = 0.56
beta = 6.0
alpha = 3.0
Q-Gamma tensors building time = 0.25
after Q matrix memory used: 7.44 GB
TDA
|-------- In-house Developed TDA Starts ---------|
Residual conv = 1e-05

Number of excited states = 5
Initial guess:   sTDA
Preconditioner:  sTDA
sTDA nstate = 10
sTDA A diagonalized in 12 steps;  1.5791 seconds
threshold = 0.001
sTDA excitation energies:
[4.07478023 4.55023946 4.88718823 5.09728138 5.57223938 5.66251714
 5.74217963 5.90889993 5.98238004 6.01019797]
initial guess time 1.6508 seconds

Iteration  0
    CPU time for df vj and vk   1162.97 sec, wall time    155.97 sec
    CPU time for df vj and vk    927.36 sec, wall time    116.82 sec
subspace size:  10
maximum residual norm 1.15e-01
sTDA precond Done after 15 steps; 0.5700 seconds
max_norm =  8.36e-03
subgencost 0.3395s  59.57%
mvcost     0.2394s  42.00%
GScost     0.1628s  28.56%
subcost    0.0090s  1.57%
new generated guesses: 5
iMVcost 328.8912
icost 329.5504

Iteration  1
    CPU time for df vj and vk    582.33 sec, wall time     78.25 sec
    CPU time for df vj and vk    463.82 sec, wall time     58.26 sec
subspace size:  15
maximum residual norm 3.41e-02
sTDA precond Done after 17 steps; 0.6275 seconds
max_norm =  9.78e-03
subgencost 0.3823s  60.93%
mvcost     0.2422s  38.59%
GScost     0.1657s  26.40%
subcost    0.0110s  1.75%
new generated guesses: 5
iMVcost 165.6143
icost 166.3486

Iteration  2
    CPU time for df vj and vk    583.41 sec, wall time     78.36 sec
    CPU time for df vj and vk    463.26 sec, wall time     58.22 sec
subspace size:  20
maximum residual norm 1.15e-02
sTDA precond Done after 15 steps; 0.5556 seconds
max_norm =  6.99e-03
subgencost 0.3209s  57.76%
mvcost     0.2115s  38.06%
GScost     0.1661s  29.90%
subcost    0.0093s  1.68%
new generated guesses: 5
iMVcost 165.5276
icost 166.2242

Iteration  3
    CPU time for df vj and vk    584.79 sec, wall time     78.56 sec
    CPU time for df vj and vk    463.55 sec, wall time     58.20 sec
subspace size:  25
maximum residual norm 4.11e-03
sTDA precond Done after 12 steps; 0.3976 seconds
max_norm =  8.93e-03
subgencost 0.2506s  63.04%
mvcost     0.1793s  45.11%
GScost     0.0944s  23.74%
subcost    0.0060s  1.50%
new generated guesses: 5
iMVcost 165.7746
icost 166.3370

Iteration  4
    CPU time for df vj and vk    583.40 sec, wall time     78.21 sec
    CPU time for df vj and vk    463.15 sec, wall time     58.16 sec
subspace size:  30
maximum residual norm 1.82e-03
sTDA precond Done after 17 steps; 0.5889 seconds
max_norm =  7.37e-03
subgencost 0.3477s  59.04%
mvcost     0.2198s  37.33%
GScost     0.1645s  27.94%
subcost    0.0113s  1.91%
new generated guesses: 5
iMVcost 165.4308
icost 166.2331

Iteration  5
    CPU time for df vj and vk    587.46 sec, wall time     78.65 sec
    CPU time for df vj and vk    465.93 sec, wall time     58.54 sec
subspace size:  35
maximum residual norm 9.00e-04
sTDA precond Done after 17 steps; 0.6380 seconds
max_norm =  6.85e-03
subgencost 0.3765s  59.02%
mvcost     0.2464s  38.62%
GScost     0.1795s  28.13%
subcost    0.0116s  1.82%
new generated guesses: 5
iMVcost 166.1096
icost 167.0196

Iteration  6
    CPU time for df vj and vk    585.45 sec, wall time     78.37 sec
    CPU time for df vj and vk    465.99 sec, wall time     58.59 sec
subspace size:  40
maximum residual norm 3.49e-04
sTDA precond Done after 12 steps; 0.4390 seconds
max_norm =  8.78e-03
subgencost 0.2667s  60.76%
mvcost     0.1883s  42.89%
GScost     0.1175s  26.77%
subcost    0.0065s  1.48%
new generated guesses: 5
iMVcost 165.9085
icost 166.6187

Iteration  7
    CPU time for df vj and vk    585.44 sec, wall time     78.37 sec
    CPU time for df vj and vk    465.38 sec, wall time     58.48 sec
subspace size:  45
maximum residual norm 1.13e-04
sTDA precond Done after 11 steps; 0.1916 seconds
max_norm =  9.93e-03
subgencost 0.1357s  70.83%
mvcost     0.1081s  56.41%
GScost     0.0321s  16.77%
subcost    0.0031s  1.59%
new generated guesses: 2
iMVcost 166.4325
icost 166.7945

Iteration  8
    CPU time for df vj and vk    234.21 sec, wall time     31.80 sec
    CPU time for df vj and vk    185.97 sec, wall time     23.36 sec
subspace size:  47
maximum residual norm 3.38e-05
sTDA precond Done after 16 steps; 0.1494 seconds
max_norm =  8.16e-03
subgencost 0.1127s  75.45%
mvcost     0.0878s  58.78%
GScost     0.0199s  13.31%
subcost    0.0032s  2.13%
new generated guesses: 1
iMVcost 67.7910
icost 68.0542

Iteration  9
    CPU time for df vj and vk    117.62 sec, wall time     16.25 sec
    CPU time for df vj and vk     93.73 sec, wall time     11.75 sec
subspace size:  48
maximum residual norm 1.25e-05
sTDA precond Done after 16 steps; 0.1481 seconds
max_norm =  8.15e-03
subgencost 0.1113s  75.16%
mvcost     0.0871s  58.83%
GScost     0.0198s  13.38%
subcost    0.0031s  2.08%
new generated guesses: 1
iMVcost 35.3067
icost 35.5523

Iteration  10
    CPU time for df vj and vk    117.51 sec, wall time     16.48 sec
    CPU time for df vj and vk     91.39 sec, wall time     11.47 sec
subspace size:  49
maximum residual norm 5.66e-06
iMVcost 35.1820
icost 35.2300
Davidson procedure Done 

------- Davidson done -------
max_norm =  5.658252825840639e-06
Total steps = 11
Total time: 1635.6137 seconds
MVcost 1627.9688
Final subspace shape = 49
Precond time: 4.3623 seconds 0.27%
Excited State energies (eV) =
 [4.2240862  4.68742355 4.94960926 5.37768901 5.68204014]
xyzfile = 36_DAPI.xyz
checkfile = True
method = RKS
functional = wb97x
basis_set = def2-tzvp
density_fit = True
grid_level = 3
nstates = 5
pytd = False
TDA = True
TDDFT = False
dynpol = False
dynpol_omega = []
stapol = False
sTDA = False
sTDDFT = False
Truncate_test = False
truncate_virtual = 40.0
ip_options = [0]
conv_tolerance = 1e-05
initial_TOL = 0.001
precond_TOL = 0.01
extrainitial = 8
max = 30
eigensolver_tol = 1e-05
memory = 20000
verbose = 5
beta = [6.0]
alpha = [3.0]
|-------- In-house Developed TDA Ends ----------|
