curpath /scratch/pbsjobs/job.16219609.hpc
lib.num_threads() =  20
at beginning memory used: 0.05 GB
mol.max_memory 60000


System: uname_result(system='Linux', node='compt243', release='3.10.0-1127.el7.x86_64', version='#1 SMP Tue Feb 18 16:39:12 EST 2020', machine='x86_64', processor='x86_64')  Threads 20
Python 3.7.0 (default, Aug 23 2018, 14:24:33) 
[GCC 6.3.0]
numpy 1.18.1  scipy 1.4.1
Date: Mon Aug 30 22:53:17 2021
PySCF version 1.7.4
PySCF path  /home/zzz6/.local/lib/python3.7/site-packages/pyscf

[CONFIG] conf_file None
[INPUT] verbose = 5
[INPUT] max_memory = 60000 
[INPUT] num. atoms = 53
[INPUT] num. electrons = 222
[INPUT] charge = 0
[INPUT] spin (= nelec alpha-beta = 2S) = 0
[INPUT] symmetry False subgroup None
[INPUT] Mole.unit = angstrom
[INPUT]  1 O     -1.859081069441   2.190820885101  -2.006142183407 AA   -3.513154064606   4.140051460818  -3.791059293577 Bohr
[INPUT]  2 C     -1.699378063641   1.118298663531  -1.413700127590 AA   -3.211359122375   2.113278199542  -2.671506063408 Bohr
[INPUT]  3 C     -2.619671593779   0.000457815232  -1.109163041653 AA   -4.950461848545   0.000865145403  -2.096014376213 Bohr
[INPUT]  4 C     -4.074651159439   0.029068384848  -1.471729472039 AA   -7.699974744481   0.054931286247  -2.781165631605 Bohr
[INPUT]  5 C     -4.869041484895   0.852284863731  -0.463802624104 AA   -9.201154895597   1.610584972565  -0.876459935412 Bohr
[INPUT]  6 C     -5.636936802287   0.228427622732   0.532963840837 AA  -10.652266737804   0.431665646250   1.007155693479 Bohr
[INPUT]  7 C     -6.338719146219   0.982428936072   1.483570940882 AA  -11.978443166890   1.856521626024   2.803542764631 Bohr
[INPUT]  8 C     -6.271633995520   2.386205622181   1.454699769947 AA  -11.851670605045   4.509275102819   2.748984158668 Bohr
[INPUT]  9 O     -6.934690031148   3.175772886775   2.354967248276 AA  -13.104664917621   6.001340989824   4.450243131562 Bohr
[INPUT] 10 C     -5.495893188370   3.023732627096   0.468924049683 AA  -10.385732935882   5.714026539124   0.886138027122 Bohr
[INPUT] 11 C     -4.802955913141   2.261319737795  -0.474864537784 AA   -9.076271264197   4.273274984506  -0.897363922680 Bohr
[INPUT] 12 N     -2.036434887764  -0.991991764850  -0.435882535903 AA   -3.848304208383  -1.874592753391  -0.823698615337 Bohr
[INPUT] 13 C     -0.738250967830  -0.619178243355  -0.262383114370 AA   -1.395092140394  -1.170077302231  -0.495832225870 Bohr
[INPUT] 14 C      0.291640359043  -1.275299264263   0.361391626208 AA    0.551120405462  -2.409966336317   0.682931197244 Bohr
[INPUT] 15 C      0.145558859808  -2.635420244847   0.990327697537 AA    0.275066380040  -4.980222485896   1.871448121917 Bohr
[INPUT] 16 C      1.240506642201  -3.577899977298   0.520512131957 AA    2.344217809463  -6.761251058181   0.983625373913 Bohr
[INPUT] 17 C      2.309299877577  -3.924456379303   1.367513318649 AA    4.363944308112  -7.416147744684   2.584225643941 Bohr
[INPUT] 18 C      3.351628413800  -4.744754955840   0.907051473820 AA    6.333659773392  -8.966287394711   1.714078866404 Bohr
[INPUT] 19 C      3.334821371277  -5.226829313566  -0.408191710236 AA    6.301899066061  -9.877275902489  -0.771370538664 Bohr
[INPUT] 20 C      2.272388042502  -4.885958332558  -1.260901159909 AA    4.294191049065  -9.233123104572  -2.382757862374 Bohr
[INPUT] 21 C      1.235776593792  -4.065019539792  -0.801539757019 AA    2.335279313416  -7.681773621213  -1.514690618717 Bohr
[INPUT] 22 N      1.525791927526  -0.659141380461   0.412750664362 AA    2.883328866096  -1.245596686439   0.779985713377 Bohr
[INPUT] 23 H      2.327670425099  -1.250728787159   0.635134814431 AA    4.398659611687  -2.363534863840   1.200230851451 Bohr
[INPUT] 24 C      1.782140987932   0.599553624830  -0.171846309454 AA    3.367758382552   1.132992147919  -0.324742460386 Bohr
[INPUT] 25 C      3.147468758551   1.130907485919  -0.039637609418 AA    5.947853939286   2.137105420608  -0.074904226033 Bohr
[INPUT] 26 C      3.975276403310   0.757739753187   1.045787103103 AA    7.512183671703   1.431920607219   1.976251209468 Bohr
[INPUT] 27 C      5.271520567767   1.257779306716   1.181097486449 AA    9.961730133092   2.376858414839   2.231950775802 Bohr
[INPUT] 28 C      5.778286133626   2.160369763842   0.228783582553 AA   10.919378261924   4.082507181453   0.432338312821 Bohr
[INPUT] 29 O      7.049256343903   2.621384646795   0.403122758265 AA   13.321163871830   4.953699049583   0.761791607699 Bohr
[INPUT] 30 C      4.968461021865   2.544823243995  -0.857940887736 AA    9.389030591902   4.809018966578  -1.621273308888 Bohr
[INPUT] 31 C      3.677890542413   2.029621686624  -0.991491235644 AA    6.950205841289   3.835429124196  -1.873646890273 Bohr
[INPUT] 32 C      0.747530384802   1.255153356313  -0.781900220261 AA    1.412627697067   2.371896087760  -1.477577273030 Bohr
[INPUT] 33 N     -0.499318387839   0.656365831423  -0.846392567065 AA   -0.943575001975   1.240351658913  -1.599450145621 Bohr
[INPUT] 34 H     -4.176528798679   0.477650405849  -2.475872348474 AA   -7.892495580862   0.902628450342  -4.678720658000 Bohr
[INPUT] 35 H     -4.454923407274  -1.004220738825  -1.502915067265 AA   -8.418585145662  -1.897702164988  -2.840097865614 Bohr
[INPUT] 36 H     -5.692122435355  -0.865429705745   0.569734207454 AA  -10.756552470314  -1.635425123921   1.076641615885 Bohr
[INPUT] 37 H     -6.941174080395   0.479793793518   2.251171817170 AA  -13.116917994877   0.906678866016   4.254098193792 Bohr
[INPUT] 38 H     -7.421501030702   2.597307558642   2.968711622678 AA  -14.024604381204   4.908199947095   5.610051909674 Bohr
[INPUT] 39 H     -5.447198513000   4.116759496375   0.460621756310 AA  -10.293713335707   7.779547968851   0.870448966443 Bohr
[INPUT] 40 H     -4.178995164593   2.757801375371  -1.225974412460 AA   -7.897156336963   5.211489305400  -2.316755875274 Bohr
[INPUT] 41 H     -0.858042019591  -3.006974474001   0.729560642316 AA   -1.621464420396  -5.682358219420   1.378669805238 Bohr
[INPUT] 42 H      0.191958771191  -2.533592775013   2.090966721939 AA    0.362749504760  -4.787796455951   3.951354440044 Bohr
[INPUT] 43 H      2.318429552788  -3.558145990478   2.401351867166 AA    4.381196893867  -6.723921433223   4.537897357657 Bohr
[INPUT] 44 H      4.174529104311  -5.009101360155   1.579643267095 AA    7.888716706174  -9.465829700879   2.985093149322 Bohr
[INPUT] 45 H      4.145739231691  -5.867809435038  -0.769517570445 AA    7.834311731761 -11.088552783361  -1.454177456182 Bohr
[INPUT] 46 H      2.253585872807  -5.261672386322  -2.289456889971 AA    4.258660097794  -9.943119767336  -4.326446496043 Bohr
[INPUT] 47 H      0.412032511475  -3.791304155919  -1.470608704268 AA    0.778628601105  -7.164526509612  -2.779047687468 Bohr
[INPUT] 48 H      3.587441297160   0.087415136268   1.820571540721 AA    6.779281539587   0.165190666689   3.440381602140 Bohr
[INPUT] 49 H      5.903040860449   0.971039615493   2.026752955392 AA   11.155130528366   1.834998929385   3.830008007843 Bohr
[INPUT] 50 H      7.261154149422   3.239869188217  -0.319042890682 AA   13.721592690657   6.122465445148  -0.602903685378 Bohr
[INPUT] 51 H      5.361219408859   3.237013711556  -1.612796892852 AA   10.131236376447   6.117069376304  -3.047744422040 Bohr
[INPUT] 52 H      3.077912258189   2.313084328649  -1.861697905985 AA    5.816411203418   4.371095884170  -3.518099168988 Bohr
[INPUT] 53 H      0.819485465765   2.257977850111  -1.205793129206 AA    1.548603093358   4.266959732043  -2.278618777081 Bohr
[INPUT] ---------------- BASIS SET ---------------- 
[INPUT] l, kappa, [nprim/nctr], expnt,             c_1 c_2 ...
[INPUT] C
[INPUT] 0    0    [6    /1   ]  13575.349682      0.00022245814352
                                2035.233368       0.0017232738252
                                463.22562359      0.0089255715314
                                131.20019598      0.035727984502
                                42.853015891      0.11076259931
                                15.584185766      0.24295627626
[INPUT] 0    0    [2    /1   ]  6.2067138508      0.41440263448
                                2.5764896527      0.23744968655
[INPUT] 0    0    [1    /1   ]  0.57696339419        1
[INPUT] 0    0    [1    /1   ]  0.22972831358        1
[INPUT] 0    0    [1    /1   ]  0.095164440028       1
[INPUT] 1    0    [4    /1   ]  34.697232244      0.0053333657805
                                7.9582622826      0.035864109092
                                2.3780826883      0.14215873329
                                0.81433208183     0.34270471845
[INPUT] 1    0    [1    /1   ]  0.28887547253        1
[INPUT] 1    0    [1    /1   ]  0.10056823671        1
[INPUT] 2    0    [1    /1   ]  1.097                1
[INPUT] 2    0    [1    /1   ]  0.318                1
[INPUT] 3    0    [1    /1   ]  0.761                1
[INPUT] H
[INPUT] 0    0    [3    /1   ]  34.061341         0.0060251978
                                5.1235746         0.045021094
                                1.1646626         0.20189726
[INPUT] 0    0    [1    /1   ]  0.32723041           1
[INPUT] 0    0    [1    /1   ]  0.10307241           1
[INPUT] 1    0    [1    /1   ]  0.8                  1
[INPUT] O
[INPUT] 0    0    [6    /1   ]  27032.382631      0.00021726302465
                                4052.3871392      0.0016838662199
                                922.3272271       0.0087395616265
                                261.24070989      0.035239968808
                                85.354641351      0.11153519115
                                31.035035245      0.25588953961
[INPUT] 0    0    [2    /1   ]  12.260860728      0.39768730901
                                4.9987076005      0.2462784943
[INPUT] 0    0    [1    /1   ]  1.1703108158         1
[INPUT] 0    0    [1    /1   ]  0.46474740994        1
[INPUT] 0    0    [1    /1   ]  0.18504536357        1
[INPUT] 1    0    [4    /1   ]  63.274954801      0.0060685103418
                                14.627049379      0.041912575824
                                4.4501223456      0.16153841088
                                1.5275799647      0.35706951311
[INPUT] 1    0    [1    /1   ]  0.52935117943        1
[INPUT] 1    0    [1    /1   ]  0.1747842127         1
[INPUT] 2    0    [1    /1   ]  2.314                1
[INPUT] 2    0    [1    /1   ]  0.645                1
[INPUT] 3    0    [1    /1   ]  1.428                1
[INPUT] N
[INPUT] 0    0    [6    /1   ]  19730.800647      0.00021887984991
                                2957.8958745      0.0016960708803
                                673.22133595      0.0087954603538
                                190.68249494      0.035359382605
                                62.295441898      0.11095789217
                                22.654161182      0.24982972552
[INPUT] 0    0    [2    /1   ]  8.9791477428      0.40623896148
                                3.686300237       0.24338217176
[INPUT] 0    0    [1    /1   ]  0.84660076805        1
[INPUT] 0    0    [1    /1   ]  0.33647133771        1
[INPUT] 0    0    [1    /1   ]  0.13647653675        1
[INPUT] 1    0    [4    /1   ]  49.20038051       0.0055552416751
                                11.346790537      0.038052379723
                                3.4273972411      0.14953671029
                                1.1785525134      0.3494930523
[INPUT] 1    0    [1    /1   ]  0.41642204972        1
[INPUT] 1    0    [1    /1   ]  0.14260826011        1
[INPUT] 2    0    [1    /1   ]  1.654                1
[INPUT] 2    0    [1    /1   ]  0.469                1
[INPUT] 3    0    [1    /1   ]  1.093                1

nuclear repulsion = 2867.29919278269
number of shells = 436
number of NR pGTOs = 1640
number of NR cGTOs = 1118
basis = def2-tzvp
ecp = {}
CPU time:         2.33
RKS
Density fitting turned on
Molecule built
Calculating SCF Energy...


******** <class 'pyscf.df.df_jk.density_fit.<locals>.DFHF'> ********
method = DFHF-RKS-RHF
initial guess = chkfile
damping factor = 0
level_shift factor = 0
DIIS = <class 'pyscf.scf.diis.CDIIS'>
diis_start_cycle = 1
diis_space = 8
SCF conv_tol = 1e-10
SCF conv_tol_grad = None
SCF max_cycles = 50
direct_scf = True
direct_scf_tol = 1e-13
chkfile to save SCF result = 53_Coelenterazine_wb97x.chk
max_memory 60000 MB (current use 55 MB)
XC functionals = wb97x
small_rho_cutoff = 1e-07
radial grids: 
    Treutler-Ahlrichs [JCP 102, 346 (1995); DOI:10.1063/1.469408] (M4) radial grids
    
becke partition: Becke, JCP 88, 2547 (1988); DOI:10.1063/1.454033
pruning grids: <function nwchem_prune at 0x7f218222be18>
grids dens level: 3
symmetrized grids: False
atomic radii adjust function: <function treutler_atomic_radii_adjust at 0x7f218222bd90>
Set gradient conv threshold to 1e-05
atom O rad-grids = 75, ang-grids = [ 50  50  50  50  50  50  50  50  50  50  50  50  50  50  50  50  50  50
  50  50  50  50  86  86  86  86  86  86  86  86  86 266 266 266 266 266
 266 266 302 302 302 302 302 302 302 302 302 302 302 302 302 302 302 302
 302 302 302 266 266 266 266 266 266 266 266 266 266 266 266 266 266 266
 266 266 266]
atom C rad-grids = 75, ang-grids = [ 50  50  50  50  50  50  50  50  50  50  50  50  50  50  50  50  50  50
  50  50  50  50  50  86  86  86  86  86  86  86  86  86  86 266 266 266
 266 266 266 266 302 302 302 302 302 302 302 302 302 302 302 302 302 302
 302 302 302 302 302 302 266 266 266 266 266 266 266 266 266 266 266 266
 266 266 266]
atom N rad-grids = 75, ang-grids = [ 50  50  50  50  50  50  50  50  50  50  50  50  50  50  50  50  50  50
  50  50  50  50  50  86  86  86  86  86  86  86  86  86 266 266 266 266
 266 266 266 302 302 302 302 302 302 302 302 302 302 302 302 302 302 302
 302 302 302 302 266 266 266 266 266 266 266 266 266 266 266 266 266 266
 266 266 266]
atom H rad-grids = 50, ang-grids = [ 50  50  50  50  50  50  50  50  50  50  50  50  50  50  86  86  86  86
 266 266 266 266 302 302 302 302 302 302 302 302 302 302 302 302 302 266
 266 266 266 266 266 266 266 266 266 266 266 266 266 266]
tot grids = 656880
Drop grids 115787
    CPU time for setting up grids    126.15 sec, wall time      7.37 sec
nelec by numeric integration = 222.0001229023293
    CPU time for vxc    199.81 sec, wall time     11.72 sec
******** <class 'pyscf.df.df.DF'> ********
auxbasis = None
max_memory = 60000
_cderi_to_save = /tmp/job.16219609.hpc/tmpcnnthqms
Default auxbasis def2-tzvp-jkfit is used for C def2-tzvp
Default auxbasis def2-tzvp-jkfit is used for H def2-tzvp
Default auxbasis def2-tzvp-jkfit is used for O def2-tzvp
Default auxbasis def2-tzvp-jkfit is used for N def2-tzvp
num shells = 926, num cGTOs = 2790
size of aux basis 2790
int3c2e [1/1], AO [0:436], nrow = 625521
    CPU time for cholesky_eri    276.75 sec, wall time     44.93 sec
    CPU time for df vj and vk    848.24 sec, wall time     83.89 sec
Create RSH-DF object <pyscf.df.df.DF object at 0x7f219ea7f6a0> for omega=0.3
******** <class 'pyscf.df.df.DF'> ********
auxbasis = None
max_memory = 60000
_cderi_to_save = /tmp/job.16219609.hpc/tmpxzm7lfy2
Default auxbasis def2-tzvp-jkfit is used for C def2-tzvp
Default auxbasis def2-tzvp-jkfit is used for H def2-tzvp
Default auxbasis def2-tzvp-jkfit is used for O def2-tzvp
Default auxbasis def2-tzvp-jkfit is used for N def2-tzvp
num shells = 926, num cGTOs = 2790
size of aux basis 2183
int3c2e [1/2], AO [0:354], nrow = 486591
int3c2e [2/2], AO [354:436], nrow = 138930
    CPU time for cholesky_eri    381.26 sec, wall time     27.33 sec
    CPU time for df vj and vk    852.95 sec, wall time     53.79 sec
E1 = -7592.260429967423  Ecoul = 3526.6743305160926  Exc = -195.18828045550828
init E= -1393.47518712415
cond(S) = 1200136.4451512136
    CPU time for initialize scf   2038.77 sec, wall time    158.21 sec
  HOMO = -0.256855706931354  LUMO = 0.00326792810917803
  mo_energy =
[-1.92438551e+01 -1.92201620e+01 -1.91470365e+01 -1.44551242e+01
 -1.44477986e+01 -1.44038483e+01 -1.03496547e+01 -1.03438421e+01
 -1.03404119e+01 -1.03249919e+01 -1.03221844e+01 -1.03164363e+01
 -1.03083635e+01 -1.03026667e+01 -1.02939642e+01 -1.02926984e+01
 -1.02922262e+01 -1.02875602e+01 -1.02868810e+01 -1.02827666e+01
 -1.02820290e+01 -1.02819496e+01 -1.02808684e+01 -1.02793636e+01
 -1.02790419e+01 -1.02768205e+01 -1.02630418e+01 -1.02594741e+01
 -1.02584897e+01 -1.02558771e+01 -1.02511377e+01 -1.02483693e+01
 -1.20622417e+00 -1.18116167e+00 -1.17180561e+00 -1.12523921e+00
 -1.09894522e+00 -1.03656271e+00 -1.00962412e+00 -1.00368410e+00
 -9.77488869e-01 -9.53669917e-01 -9.16697329e-01 -9.08359791e-01
 -8.97594998e-01 -8.90839053e-01 -8.83093979e-01 -8.69244370e-01
 -8.67358658e-01 -8.39186106e-01 -8.16436992e-01 -7.86122340e-01
 -7.66912061e-01 -7.50084218e-01 -7.43669177e-01 -7.35363555e-01
 -7.32798085e-01 -7.20130891e-01 -7.05668695e-01 -6.90762829e-01
 -6.77016987e-01 -6.65540599e-01 -6.52750230e-01 -6.47342544e-01
 -6.42768421e-01 -6.35284279e-01 -6.04618950e-01 -5.99850839e-01
 -5.94367550e-01 -5.86240018e-01 -5.83369794e-01 -5.81893568e-01
 -5.72953796e-01 -5.67918543e-01 -5.60811980e-01 -5.49957107e-01
 -5.44881936e-01 -5.44186993e-01 -5.42856378e-01 -5.40943179e-01
 -5.34554770e-01 -5.26550442e-01 -5.22231135e-01 -5.19220852e-01
 -5.15549589e-01 -5.12445357e-01 -5.11722941e-01 -5.01539410e-01
 -5.01027807e-01 -4.95387489e-01 -4.85883025e-01 -4.74017659e-01
 -4.70942279e-01 -4.63100687e-01 -4.58959102e-01 -4.57812654e-01
 -4.56739979e-01 -4.45369815e-01 -4.33244838e-01 -4.29547799e-01
 -4.23096597e-01 -4.16705966e-01 -3.69696674e-01 -3.68049439e-01
 -3.64163586e-01 -3.56706258e-01 -3.46409859e-01 -3.38992315e-01
 -3.15783443e-01 -3.01181325e-01 -2.56855707e-01  3.26792811e-03
  2.96109351e-02  4.42149594e-02  4.52509100e-02  4.98148100e-02
  7.23556944e-02  9.02396630e-02  9.66367527e-02  1.04369528e-01
  1.07445467e-01  1.21932556e-01  1.26242911e-01  1.31256140e-01
  1.37009124e-01  1.39264203e-01  1.46922358e-01  1.54095174e-01
  1.58994752e-01  1.68255910e-01  1.70287871e-01  1.72324484e-01
  1.74974058e-01  1.77485737e-01  1.80665774e-01  1.85554760e-01
  1.92470019e-01  1.96346522e-01  1.97717351e-01  2.02432450e-01
  2.06716015e-01  2.08468396e-01  2.10535381e-01  2.18773372e-01
  2.25012791e-01  2.29189915e-01  2.30329139e-01  2.34740118e-01
  2.39550095e-01  2.43617154e-01  2.47432176e-01  2.49136737e-01
  2.50551492e-01  2.54024276e-01  2.59708516e-01  2.67361937e-01
  2.70786589e-01  2.73476166e-01  2.76852457e-01  2.79217516e-01
  2.83789555e-01  2.89104933e-01  2.92313434e-01  2.95501138e-01
  2.97675635e-01  3.01834164e-01  3.05757801e-01  3.08947344e-01
  3.10217829e-01  3.13442102e-01  3.13739196e-01  3.16189702e-01
  3.17375256e-01  3.25413542e-01  3.27814067e-01  3.29146686e-01
  3.32970118e-01  3.35471774e-01  3.43618501e-01  3.44765591e-01
  3.50623268e-01  3.53675573e-01  3.55793315e-01  3.59163040e-01
  3.61435020e-01  3.66003245e-01  3.68637090e-01  3.74527312e-01
  3.75788231e-01  3.79549506e-01  3.83977522e-01  3.89227013e-01
  3.92014500e-01  3.92812880e-01  3.94210176e-01  3.97569600e-01
  4.05610893e-01  4.08172518e-01  4.13658441e-01  4.15531672e-01
  4.20488951e-01  4.22031957e-01  4.24198389e-01  4.30081804e-01
  4.30955982e-01  4.33654376e-01  4.35292138e-01  4.39916434e-01
  4.40490317e-01  4.41655802e-01  4.45023955e-01  4.46660955e-01
  4.49654676e-01  4.50778417e-01  4.51779269e-01  4.57117797e-01
  4.60386645e-01  4.62089962e-01  4.67703420e-01  4.70881617e-01
  4.74850139e-01  4.76514936e-01  4.80753293e-01  4.83353526e-01
  4.86895745e-01  4.88349138e-01  4.89735994e-01  4.92362792e-01
  4.96344299e-01  5.01627944e-01  5.05567095e-01  5.09259380e-01
  5.14030076e-01  5.15522071e-01  5.16306549e-01  5.21521973e-01
  5.25784345e-01  5.29049984e-01  5.34430754e-01  5.35507619e-01
  5.36433229e-01  5.40145700e-01  5.41439592e-01  5.42553948e-01
  5.51316518e-01  5.51904766e-01  5.54800733e-01  5.58232309e-01
  5.65758384e-01  5.67416652e-01  5.71604653e-01  5.73533125e-01
  5.75715399e-01  5.78808187e-01  5.79779805e-01  5.84072573e-01
  5.84846197e-01  5.88123285e-01  5.93098323e-01  5.96227080e-01
  6.04365575e-01  6.07961895e-01  6.15102434e-01  6.19661220e-01
  6.21677698e-01  6.26772415e-01  6.31242101e-01  6.35449068e-01
  6.42272448e-01  6.44689280e-01  6.49184407e-01  6.51473251e-01
  6.59009981e-01  6.61748508e-01  6.67443645e-01  6.68856897e-01
  6.71311912e-01  6.76845578e-01  6.83320838e-01  6.89366992e-01
  6.93310580e-01  6.95261997e-01  7.00000220e-01  7.09785564e-01
  7.12564185e-01  7.17871756e-01  7.19681680e-01  7.25530832e-01
  7.28284236e-01  7.32531769e-01  7.34607571e-01  7.36656183e-01
  7.41391507e-01  7.47108964e-01  7.49794897e-01  7.52220743e-01
  7.61303960e-01  7.65364580e-01  7.66813701e-01  7.72580142e-01
  7.74532986e-01  7.79621133e-01  7.79999972e-01  7.85143503e-01
  7.89021096e-01  7.93331126e-01  7.94314312e-01  7.98964198e-01
  8.02077641e-01  8.11515914e-01  8.12213511e-01  8.14571257e-01
  8.19979186e-01  8.21949293e-01  8.26175243e-01  8.31255913e-01
  8.33478548e-01  8.37764680e-01  8.41711513e-01  8.46076412e-01
  8.48589989e-01  8.52221780e-01  8.56495609e-01  8.60193995e-01
  8.70489761e-01  8.71760885e-01  8.76078496e-01  8.81615795e-01
  8.85138452e-01  8.90335875e-01  8.96824118e-01  9.04255749e-01
  9.05464110e-01  9.11364568e-01  9.16648050e-01  9.19772346e-01
  9.23799928e-01  9.28983139e-01  9.30824752e-01  9.37880597e-01
  9.40270366e-01  9.49560837e-01  9.50129397e-01  9.53770694e-01
  9.57815195e-01  9.66398015e-01  9.71639533e-01  9.74972225e-01
  9.77510185e-01  9.81978938e-01  9.86756047e-01  9.92380159e-01
  9.99323562e-01  1.00022739e+00  1.00782941e+00  1.01185107e+00
  1.01542591e+00  1.02425574e+00  1.02869745e+00  1.03444944e+00
  1.04295532e+00  1.05350453e+00  1.06141385e+00  1.06834753e+00
  1.07317999e+00  1.08266938e+00  1.08756701e+00  1.09223197e+00
  1.10139935e+00  1.10916157e+00  1.11657421e+00  1.12201318e+00
  1.12570523e+00  1.13190260e+00  1.13677637e+00  1.14149669e+00
  1.14483235e+00  1.14624739e+00  1.15405287e+00  1.16122450e+00
  1.16324847e+00  1.16923502e+00  1.17099822e+00  1.18000669e+00
  1.18767732e+00  1.19050401e+00  1.20009215e+00  1.20620256e+00
  1.21693883e+00  1.22000801e+00  1.22531415e+00  1.23501142e+00
  1.24074445e+00  1.24987738e+00  1.25416894e+00  1.26598672e+00
  1.27113915e+00  1.28077698e+00  1.28428697e+00  1.29191255e+00
  1.29702052e+00  1.29845635e+00  1.30464140e+00  1.30855420e+00
  1.31182397e+00  1.31481592e+00  1.31652866e+00  1.32526952e+00
  1.33006667e+00  1.33353611e+00  1.34141744e+00  1.34361848e+00
  1.34662990e+00  1.35330164e+00  1.35725654e+00  1.36606588e+00
  1.37106097e+00  1.37605026e+00  1.37731917e+00  1.38085155e+00
  1.39003548e+00  1.39321717e+00  1.40702915e+00  1.40892471e+00
  1.41104594e+00  1.42140360e+00  1.42522522e+00  1.42885815e+00
  1.43182686e+00  1.44485502e+00  1.44740637e+00  1.45146525e+00
  1.45605826e+00  1.45987242e+00  1.47631011e+00  1.48363376e+00
  1.48743496e+00  1.48978872e+00  1.49841057e+00  1.50582747e+00
  1.51748444e+00  1.52342789e+00  1.52753185e+00  1.53506502e+00
  1.53894777e+00  1.54124630e+00  1.54360193e+00  1.55362572e+00
  1.55453727e+00  1.55862334e+00  1.56244357e+00  1.56645174e+00
  1.57097538e+00  1.58116624e+00  1.58498017e+00  1.59421593e+00
  1.59879946e+00  1.60240986e+00  1.60473158e+00  1.60904821e+00
  1.61267358e+00  1.61561222e+00  1.62077160e+00  1.63566251e+00
  1.63719075e+00  1.64368266e+00  1.64658594e+00  1.65733872e+00
  1.66180225e+00  1.66285232e+00  1.66796977e+00  1.67232139e+00
  1.67864941e+00  1.69095390e+00  1.69280942e+00  1.69832708e+00
  1.70292183e+00  1.70913600e+00  1.71196583e+00  1.71381690e+00
  1.72145719e+00  1.72463886e+00  1.73041181e+00  1.73257597e+00
  1.74038076e+00  1.74701748e+00  1.74825142e+00  1.75289644e+00
  1.75706176e+00  1.76002752e+00  1.76704039e+00  1.77374967e+00
  1.77556728e+00  1.77944636e+00  1.78692318e+00  1.78944315e+00
  1.79615646e+00  1.79854504e+00  1.80194848e+00  1.80495633e+00
  1.81100483e+00  1.81297510e+00  1.81643267e+00  1.82565145e+00
  1.82685824e+00  1.83019340e+00  1.83742349e+00  1.84166014e+00
  1.84505170e+00  1.85295486e+00  1.85318722e+00  1.86058374e+00
  1.86491194e+00  1.87060552e+00  1.87746599e+00  1.88338337e+00
  1.89044756e+00  1.90195854e+00  1.91576578e+00  1.92161788e+00
  1.92514315e+00  1.92963458e+00  1.93939216e+00  1.94097995e+00
  1.94724324e+00  1.95361788e+00  1.95839837e+00  1.96418750e+00
  1.97644069e+00  1.97989010e+00  1.99231580e+00  1.99276925e+00
  1.99976556e+00  2.00059629e+00  2.00800023e+00  2.01371858e+00
  2.02059980e+00  2.03466897e+00  2.03947877e+00  2.04403873e+00
  2.04988775e+00  2.05307965e+00  2.05808777e+00  2.07477840e+00
  2.07635334e+00  2.08588005e+00  2.09455103e+00  2.10001751e+00
  2.10283433e+00  2.11700460e+00  2.12277745e+00  2.12659303e+00
  2.13045766e+00  2.13390655e+00  2.14148913e+00  2.14649078e+00
  2.15412318e+00  2.16998542e+00  2.17793563e+00  2.18266740e+00
  2.18702517e+00  2.19745146e+00  2.20805546e+00  2.21041690e+00
  2.21757666e+00  2.22011265e+00  2.22742472e+00  2.22992740e+00
  2.23480585e+00  2.23827919e+00  2.24505668e+00  2.24631474e+00
  2.25323814e+00  2.25723496e+00  2.26277249e+00  2.26396413e+00
  2.26579381e+00  2.27737081e+00  2.28100663e+00  2.28794768e+00
  2.30051447e+00  2.30355478e+00  2.30738309e+00  2.31846489e+00
  2.32064682e+00  2.33654086e+00  2.33871849e+00  2.34465406e+00
  2.35049724e+00  2.35690052e+00  2.35905860e+00  2.37166080e+00
  2.37668731e+00  2.38403615e+00  2.39738364e+00  2.40214499e+00
  2.40743084e+00  2.41381303e+00  2.41665564e+00  2.42775270e+00
  2.43252420e+00  2.44051363e+00  2.45926007e+00  2.46889667e+00
  2.47501997e+00  2.48685761e+00  2.49161398e+00  2.50288552e+00
  2.50677373e+00  2.51676485e+00  2.51914306e+00  2.52793744e+00
  2.53479086e+00  2.54218688e+00  2.54350074e+00  2.55733411e+00
  2.56221669e+00  2.57139626e+00  2.57811008e+00  2.58346433e+00
  2.59518562e+00  2.60202558e+00  2.61186633e+00  2.61912334e+00
  2.62396044e+00  2.62969192e+00  2.63341707e+00  2.64396813e+00
  2.64510370e+00  2.65166052e+00  2.65424494e+00  2.66524711e+00
  2.66802193e+00  2.67393518e+00  2.67874651e+00  2.68170027e+00
  2.68727259e+00  2.69612522e+00  2.69950876e+00  2.70304549e+00
  2.70855771e+00  2.71997752e+00  2.72646105e+00  2.73046320e+00
  2.73145803e+00  2.73766269e+00  2.74075642e+00  2.74156878e+00
  2.74679757e+00  2.74960614e+00  2.75204728e+00  2.75563266e+00
  2.76048688e+00  2.76494575e+00  2.76652695e+00  2.77565948e+00
  2.78060434e+00  2.78462360e+00  2.79203274e+00  2.79223855e+00
  2.79680734e+00  2.79915155e+00  2.80304588e+00  2.80437119e+00
  2.80536119e+00  2.81738680e+00  2.82418402e+00  2.82984847e+00
  2.83422374e+00  2.84776112e+00  2.85233873e+00  2.85634756e+00
  2.85882149e+00  2.86556434e+00  2.87003062e+00  2.87290285e+00
  2.88123311e+00  2.88429590e+00  2.88736697e+00  2.89236085e+00
  2.89860469e+00  2.90110305e+00  2.90613818e+00  2.90860349e+00
  2.91044402e+00  2.91845515e+00  2.92007462e+00  2.92487934e+00
  2.92976368e+00  2.93172872e+00  2.93652862e+00  2.94098292e+00
  2.94519478e+00  2.95022350e+00  2.95306926e+00  2.96469387e+00
  2.96864455e+00  2.97209022e+00  2.97438938e+00  2.98524832e+00
  2.99288783e+00  2.99351583e+00  3.00042213e+00  3.00732129e+00
  3.01495357e+00  3.01815410e+00  3.02548834e+00  3.02757814e+00
  3.03506069e+00  3.03659772e+00  3.04104369e+00  3.04842029e+00
  3.05907213e+00  3.06204578e+00  3.06344035e+00  3.06659583e+00
  3.07602285e+00  3.07933772e+00  3.08538479e+00  3.09267543e+00
  3.09367637e+00  3.09924658e+00  3.10398845e+00  3.11290543e+00
  3.12115064e+00  3.12525784e+00  3.13192110e+00  3.13906209e+00
  3.14581830e+00  3.15216779e+00  3.16364028e+00  3.16437961e+00
  3.17206462e+00  3.17327253e+00  3.17886491e+00  3.18361676e+00
  3.18820521e+00  3.19192720e+00  3.20225233e+00  3.20380622e+00
  3.21091653e+00  3.21367801e+00  3.21560939e+00  3.21822951e+00
  3.21962215e+00  3.22673295e+00  3.22817767e+00  3.22992009e+00
  3.23258399e+00  3.23901750e+00  3.24099703e+00  3.24571924e+00
  3.24796428e+00  3.25371865e+00  3.25555509e+00  3.26328469e+00
  3.26578494e+00  3.27339859e+00  3.27470439e+00  3.28108205e+00
  3.28816382e+00  3.29221688e+00  3.29347825e+00  3.29574927e+00
  3.30208805e+00  3.30766189e+00  3.30886530e+00  3.31451524e+00
  3.32108763e+00  3.32290078e+00  3.33123587e+00  3.33563319e+00
  3.33871311e+00  3.34526500e+00  3.35323023e+00  3.35529403e+00
  3.35910173e+00  3.36393908e+00  3.36814224e+00  3.37400522e+00
  3.37688020e+00  3.38235693e+00  3.38524143e+00  3.38719261e+00
  3.39250177e+00  3.39615949e+00  3.40011743e+00  3.40393615e+00
  3.40909598e+00  3.41031550e+00  3.41940580e+00  3.42175690e+00
  3.42715486e+00  3.42918212e+00  3.43720946e+00  3.43898256e+00
  3.44794251e+00  3.45435048e+00  3.45507738e+00  3.46403054e+00
  3.46582503e+00  3.47062470e+00  3.47452482e+00  3.47946248e+00
  3.48120325e+00  3.48459701e+00  3.48990891e+00  3.49790969e+00
  3.50237664e+00  3.50298369e+00  3.50810921e+00  3.50834162e+00
  3.51891080e+00  3.52147257e+00  3.52463375e+00  3.53332037e+00
  3.53762414e+00  3.54434699e+00  3.55384175e+00  3.55558212e+00
  3.55631117e+00  3.55874146e+00  3.56538466e+00  3.57164257e+00
  3.57701171e+00  3.58190065e+00  3.58738903e+00  3.58814561e+00
  3.59126860e+00  3.59515712e+00  3.59762718e+00  3.60216544e+00
  3.60930032e+00  3.61073390e+00  3.61411616e+00  3.61675224e+00
  3.62340464e+00  3.62717454e+00  3.64249659e+00  3.64406305e+00
  3.64681824e+00  3.66066228e+00  3.66603986e+00  3.67466459e+00
  3.67521133e+00  3.68546895e+00  3.69577778e+00  3.70324624e+00
  3.70984446e+00  3.71122364e+00  3.71722795e+00  3.72499618e+00
  3.74182297e+00  3.74822252e+00  3.75522915e+00  3.76642572e+00
  3.77466177e+00  3.78518676e+00  3.79509399e+00  3.79944101e+00
  3.81542245e+00  3.82027898e+00  3.82603398e+00  3.83937166e+00
  3.84616866e+00  3.84741682e+00  3.85078536e+00  3.86377322e+00
  3.86755292e+00  3.87797931e+00  3.88827839e+00  3.89457594e+00
  3.89827353e+00  3.91290760e+00  3.91855384e+00  3.93089469e+00
  3.93471832e+00  3.95000355e+00  3.95516789e+00  3.96695575e+00
  3.97043137e+00  3.98028190e+00  3.98588172e+00  3.99920785e+00
  4.00582579e+00  4.01257943e+00  4.01552096e+00  4.02357622e+00
  4.03790015e+00  4.04110159e+00  4.04784675e+00  4.05423892e+00
  4.06194327e+00  4.07087994e+00  4.07736885e+00  4.08603061e+00
  4.09489802e+00  4.09670359e+00  4.10402099e+00  4.10661576e+00
  4.11695798e+00  4.12499330e+00  4.13338632e+00  4.13609729e+00
  4.14971484e+00  4.17026581e+00  4.18060878e+00  4.18662744e+00
  4.19563805e+00  4.20849491e+00  4.21764797e+00  4.22111756e+00
  4.23656882e+00  4.23940566e+00  4.24865761e+00  4.25392018e+00
  4.25697765e+00  4.26093227e+00  4.26606994e+00  4.27280992e+00
  4.27906836e+00  4.28474718e+00  4.28932659e+00  4.29173985e+00
  4.29636415e+00  4.30344941e+00  4.30511553e+00  4.31399947e+00
  4.31967057e+00  4.32119130e+00  4.32945409e+00  4.33445729e+00
  4.34556651e+00  4.34903757e+00  4.36219226e+00  4.36437158e+00
  4.37502779e+00  4.37819925e+00  4.38420890e+00  4.39349818e+00
  4.40482536e+00  4.41424113e+00  4.42096002e+00  4.44088679e+00
  4.44624160e+00  4.45989014e+00  4.46973832e+00  4.48712269e+00
  4.50006531e+00  4.51883647e+00  4.52151880e+00  4.53835574e+00
  4.54363838e+00  4.56136593e+00  4.58365814e+00  4.59212783e+00
  4.59670226e+00  4.60647697e+00  4.62911474e+00  4.64257532e+00
  4.66427033e+00  4.67053268e+00  4.68287211e+00  4.68690541e+00
  4.70219874e+00  4.71115410e+00  4.73488111e+00  4.74352852e+00
  4.75267333e+00  4.76492768e+00  4.77135530e+00  4.77836154e+00
  4.79570499e+00  4.80469417e+00  4.81205855e+00  4.82614480e+00
  4.83680337e+00  4.84986971e+00  4.87667322e+00  4.87937463e+00
  4.88555291e+00  4.90538250e+00  4.91704865e+00  4.92400347e+00
  4.93429788e+00  4.94375825e+00  4.95903673e+00  4.96292496e+00
  4.96729294e+00  4.97817717e+00  4.99437124e+00  4.99503549e+00
  5.02162642e+00  5.02881437e+00  5.03475626e+00  5.05039215e+00
  5.05373246e+00  5.06534590e+00  5.07436271e+00  5.09062531e+00
  5.12316945e+00  5.13430323e+00  5.15212457e+00  5.17890658e+00
  5.18439878e+00  5.19030876e+00  5.22215671e+00  5.22415503e+00
  5.23034231e+00  5.24628153e+00  5.25939157e+00  5.26538683e+00
  5.26643742e+00  5.27778941e+00  5.28240755e+00  5.28617184e+00
  5.30920709e+00  5.34955414e+00  5.35118077e+00  5.35651707e+00
  5.37204707e+00  5.37368142e+00  5.40291409e+00  5.40390940e+00
  5.41097343e+00  5.42638795e+00  5.43462117e+00  5.47219750e+00
  5.47692085e+00  5.48338368e+00  5.49082529e+00  5.50110811e+00
  5.52942364e+00  5.54566704e+00  5.55765788e+00  5.57044740e+00
  5.57438946e+00  5.57497777e+00  5.58322503e+00  5.60215876e+00
  5.62226046e+00  5.62991363e+00  5.66718087e+00  5.69347836e+00
  5.71768588e+00  5.72695124e+00  5.75737149e+00  5.76330998e+00
  5.79422910e+00  5.80629478e+00  5.81341161e+00  5.85005914e+00
  5.87292432e+00  5.88621546e+00  5.91381979e+00  5.99506789e+00
  6.03383621e+00  6.07311643e+00  6.08898548e+00  6.14939230e+00
  6.15684865e+00  6.27079926e+00  6.29942821e+00  6.32334001e+00
  6.37368085e+00  6.37940977e+00  6.44950488e+00  6.47456386e+00
  6.48153246e+00  6.50014012e+00  6.52244240e+00  6.53099197e+00
  6.57782562e+00  6.69533970e+00  6.79452873e+00  6.81397123e+00
  6.88146024e+00  6.90353910e+00  6.96247866e+00  6.98408650e+00
  7.07134042e+00  7.09133129e+00  7.22828121e+00  7.26721294e+00
  7.34993559e+00  7.36447109e+00  2.21717630e+01  2.21965180e+01
  2.22601938e+01  2.25493556e+01  2.26031658e+01  2.26070072e+01
  2.26720916e+01  2.26884315e+01  2.26974332e+01  2.27077995e+01
  2.27283835e+01  2.27461657e+01  2.27496275e+01  2.27756548e+01
  2.27880504e+01  2.28039485e+01  2.29211137e+01  2.29357391e+01
  2.30068271e+01  2.31447658e+01  2.31633485e+01  2.32234063e+01
  2.33186875e+01  2.33818425e+01  2.35516036e+01  2.35842576e+01
  3.25577680e+01  3.27086326e+01  3.31673845e+01  4.39451175e+01
  4.39583502e+01  4.41013876e+01]
nelec by numeric integration = 222.00012290200328
    CPU time for vxc    161.53 sec, wall time      9.24 sec
    CPU time for df vj and vk    569.05 sec, wall time     37.40 sec
    CPU time for df vj and vk    448.19 sec, wall time     24.50 sec
E1 = -7592.260430989253  Ecoul = 3526.6743299100967  Exc = -195.18827882767462
cycle= 1 E= -1393.47518712415  delta_E= 8.19e-12  |g|= 1.06e-05  |ddm|= 1.75e-05
    CPU time for cycle= 1   1187.36 sec, wall time     72.42 sec
  HOMO = -0.256855681856406  LUMO = 0.00326826926322086
  mo_energy =
[-1.92438520e+01 -1.92201598e+01 -1.91470451e+01 -1.44551263e+01
 -1.44477933e+01 -1.44038478e+01 -1.03496517e+01 -1.03438425e+01
 -1.03404130e+01 -1.03249930e+01 -1.03221827e+01 -1.03164374e+01
 -1.03083624e+01 -1.03026638e+01 -1.02939652e+01 -1.02926992e+01
 -1.02922274e+01 -1.02875608e+01 -1.02868815e+01 -1.02827669e+01
 -1.02820290e+01 -1.02819503e+01 -1.02808682e+01 -1.02793633e+01
 -1.02790421e+01 -1.02768206e+01 -1.02630414e+01 -1.02594738e+01
 -1.02584900e+01 -1.02558783e+01 -1.02511376e+01 -1.02483697e+01
 -1.20622318e+00 -1.18116113e+00 -1.17180457e+00 -1.12524059e+00
 -1.09894563e+00 -1.03656134e+00 -1.00962439e+00 -1.00368448e+00
 -9.77488990e-01 -9.53670139e-01 -9.16697552e-01 -9.08359486e-01
 -8.97595328e-01 -8.90839131e-01 -8.83093783e-01 -8.69244073e-01
 -8.67358922e-01 -8.39185958e-01 -8.16436826e-01 -7.86121805e-01
 -7.66912256e-01 -7.50083886e-01 -7.43669277e-01 -7.35363564e-01
 -7.32798090e-01 -7.20130983e-01 -7.05668496e-01 -6.90762559e-01
 -6.77016765e-01 -6.65540219e-01 -6.52749903e-01 -6.47342493e-01
 -6.42768400e-01 -6.35284146e-01 -6.04618640e-01 -5.99850866e-01
 -5.94367454e-01 -5.86239729e-01 -5.83369713e-01 -5.81893354e-01
 -5.72953868e-01 -5.67918443e-01 -5.60812007e-01 -5.49957381e-01
 -5.44881805e-01 -5.44187117e-01 -5.42857257e-01 -5.40943311e-01
 -5.34554813e-01 -5.26550109e-01 -5.22231512e-01 -5.19220784e-01
 -5.15549837e-01 -5.12445407e-01 -5.11722563e-01 -5.01539418e-01
 -5.01027878e-01 -4.95387628e-01 -4.85883232e-01 -4.74017711e-01
 -4.70942136e-01 -4.63100368e-01 -4.58959287e-01 -4.57812841e-01
 -4.56740130e-01 -4.45369864e-01 -4.33244590e-01 -4.29547862e-01
 -4.23096833e-01 -4.16706002e-01 -3.69696608e-01 -3.68049512e-01
 -3.64163682e-01 -3.56706652e-01 -3.46410955e-01 -3.38992549e-01
 -3.15783392e-01 -3.01181281e-01 -2.56855682e-01  3.26826926e-03
  2.96109076e-02  4.42147616e-02  4.52507162e-02  4.98146724e-02
  7.23555411e-02  9.02396020e-02  9.66365681e-02  1.04369621e-01
  1.07445490e-01  1.21932582e-01  1.26242888e-01  1.31256255e-01
  1.37009080e-01  1.39264096e-01  1.46922397e-01  1.54095156e-01
  1.58994883e-01  1.68256016e-01  1.70287874e-01  1.72324537e-01
  1.74974196e-01  1.77485724e-01  1.80665937e-01  1.85554699e-01
  1.92470173e-01  1.96346507e-01  1.97717365e-01  2.02432389e-01
  2.06716090e-01  2.08468409e-01  2.10535305e-01  2.18773407e-01
  2.25012808e-01  2.29189828e-01  2.30329189e-01  2.34740105e-01
  2.39550147e-01  2.43617148e-01  2.47432105e-01  2.49136716e-01
  2.50551545e-01  2.54024218e-01  2.59708511e-01  2.67362040e-01
  2.70786753e-01  2.73476133e-01  2.76852402e-01  2.79217706e-01
  2.83789611e-01  2.89104811e-01  2.92313381e-01  2.95501146e-01
  2.97675699e-01  3.01834212e-01  3.05757784e-01  3.08947362e-01
  3.10217847e-01  3.13442081e-01  3.13739200e-01  3.16189690e-01
  3.17375266e-01  3.25413531e-01  3.27814047e-01  3.29146676e-01
  3.32970101e-01  3.35471826e-01  3.43618510e-01  3.44765595e-01
  3.50623268e-01  3.53675606e-01  3.55793347e-01  3.59163062e-01
  3.61435092e-01  3.66003219e-01  3.68637095e-01  3.74527411e-01
  3.75788218e-01  3.79549516e-01  3.83977526e-01  3.89227117e-01
  3.92014644e-01  3.92813025e-01  3.94210213e-01  3.97569666e-01
  4.05610922e-01  4.08172596e-01  4.13658420e-01  4.15531605e-01
  4.20488950e-01  4.22031811e-01  4.24198408e-01  4.30081826e-01
  4.30955915e-01  4.33654381e-01  4.35291991e-01  4.39916416e-01
  4.40490276e-01  4.41655853e-01  4.45023990e-01  4.46661128e-01
  4.49654727e-01  4.50778544e-01  4.51779353e-01  4.57117854e-01
  4.60386715e-01  4.62090003e-01  4.67703433e-01  4.70881679e-01
  4.74850180e-01  4.76515103e-01  4.80753257e-01  4.83353486e-01
  4.86895756e-01  4.88349178e-01  4.89735980e-01  4.92362775e-01
  4.96344291e-01  5.01627908e-01  5.05567098e-01  5.09259364e-01
  5.14030065e-01  5.15522092e-01  5.16306539e-01  5.21521916e-01
  5.25784360e-01  5.29050079e-01  5.34430754e-01  5.35507708e-01
  5.36433229e-01  5.40145648e-01  5.41439562e-01  5.42553939e-01
  5.51316506e-01  5.51904778e-01  5.54800765e-01  5.58232327e-01
  5.65758473e-01  5.67416599e-01  5.71604699e-01  5.73533080e-01
  5.75715390e-01  5.78808129e-01  5.79779819e-01  5.84072584e-01
  5.84846143e-01  5.88123314e-01  5.93098323e-01  5.96227043e-01
  6.04365526e-01  6.07961946e-01  6.15102608e-01  6.19661243e-01
  6.21677760e-01  6.26772456e-01  6.31242223e-01  6.35449215e-01
  6.42272579e-01  6.44689426e-01  6.49184502e-01  6.51473338e-01
  6.59010003e-01  6.61748605e-01  6.67443722e-01  6.68856981e-01
  6.71311888e-01  6.76845607e-01  6.83320949e-01  6.89367073e-01
  6.93310830e-01  6.95262126e-01  7.00000212e-01  7.09785558e-01
  7.12564124e-01  7.17871891e-01  7.19681723e-01  7.25530870e-01
  7.28284187e-01  7.32531852e-01  7.34607551e-01  7.36656120e-01
  7.41391610e-01  7.47108947e-01  7.49794877e-01  7.52220839e-01
  7.61303846e-01  7.65364626e-01  7.66813676e-01  7.72580069e-01
  7.74532959e-01  7.79621101e-01  7.79999902e-01  7.85143619e-01
  7.89021011e-01  7.93331130e-01  7.94314343e-01  7.98964078e-01
  8.02077546e-01  8.11515921e-01  8.12213515e-01  8.14571239e-01
  8.19979291e-01  8.21949241e-01  8.26175204e-01  8.31255813e-01
  8.33478532e-01  8.37764730e-01  8.41711529e-01  8.46076441e-01
  8.48590019e-01  8.52221748e-01  8.56495681e-01  8.60194093e-01
  8.70489772e-01  8.71760890e-01  8.76078476e-01  8.81615903e-01
  8.85138315e-01  8.90335793e-01  8.96824083e-01  9.04255784e-01
  9.05464040e-01  9.11364604e-01  9.16648096e-01  9.19772360e-01
  9.23799855e-01  9.28983050e-01  9.30824770e-01  9.37880619e-01
  9.40270357e-01  9.49560752e-01  9.50129298e-01  9.53770760e-01
  9.57815201e-01  9.66398132e-01  9.71639564e-01  9.74972149e-01
  9.77510258e-01  9.81978879e-01  9.86756029e-01  9.92380129e-01
  9.99323587e-01  1.00022742e+00  1.00782937e+00  1.01185120e+00
  1.01542597e+00  1.02425578e+00  1.02869745e+00  1.03444947e+00
  1.04295523e+00  1.05350460e+00  1.06141390e+00  1.06834760e+00
  1.07318004e+00  1.08266942e+00  1.08756674e+00  1.09223183e+00
  1.10139934e+00  1.10916149e+00  1.11657432e+00  1.12201321e+00
  1.12570536e+00  1.13190263e+00  1.13677627e+00  1.14149677e+00
  1.14483229e+00  1.14624738e+00  1.15405284e+00  1.16122463e+00
  1.16324847e+00  1.16923493e+00  1.17099824e+00  1.18000659e+00
  1.18767730e+00  1.19050403e+00  1.20009213e+00  1.20620255e+00
  1.21693886e+00  1.22000822e+00  1.22531422e+00  1.23501134e+00
  1.24074453e+00  1.24987745e+00  1.25416904e+00  1.26598674e+00
  1.27113926e+00  1.28077696e+00  1.28428693e+00  1.29191252e+00
  1.29702055e+00  1.29845630e+00  1.30464142e+00  1.30855426e+00
  1.31182391e+00  1.31481598e+00  1.31652856e+00  1.32526955e+00
  1.33006664e+00  1.33353611e+00  1.34141738e+00  1.34361849e+00
  1.34662987e+00  1.35330162e+00  1.35725666e+00  1.36606586e+00
  1.37106102e+00  1.37605026e+00  1.37731911e+00  1.38085154e+00
  1.39003556e+00  1.39321716e+00  1.40702919e+00  1.40892480e+00
  1.41104605e+00  1.42140364e+00  1.42522520e+00  1.42885815e+00
  1.43182693e+00  1.44485508e+00  1.44740643e+00  1.45146534e+00
  1.45605823e+00  1.45987249e+00  1.47631000e+00  1.48363387e+00
  1.48743517e+00  1.48978883e+00  1.49841053e+00  1.50582743e+00
  1.51748449e+00  1.52342780e+00  1.52753179e+00  1.53506497e+00
  1.53894775e+00  1.54124628e+00  1.54360196e+00  1.55362573e+00
  1.55453717e+00  1.55862332e+00  1.56244359e+00  1.56645174e+00
  1.57097539e+00  1.58116644e+00  1.58498018e+00  1.59421592e+00
  1.59879943e+00  1.60240989e+00  1.60473169e+00  1.60904826e+00
  1.61267350e+00  1.61561217e+00  1.62077157e+00  1.63566249e+00
  1.63719076e+00  1.64368256e+00  1.64658590e+00  1.65733883e+00
  1.66180223e+00  1.66285240e+00  1.66796977e+00  1.67232157e+00
  1.67864952e+00  1.69095390e+00  1.69280952e+00  1.69832707e+00
  1.70292185e+00  1.70913602e+00  1.71196582e+00  1.71381696e+00
  1.72145726e+00  1.72463884e+00  1.73041178e+00  1.73257605e+00
  1.74038076e+00  1.74701749e+00  1.74825149e+00  1.75289643e+00
  1.75706176e+00  1.76002751e+00  1.76704046e+00  1.77374964e+00
  1.77556719e+00  1.77944639e+00  1.78692303e+00  1.78944312e+00
  1.79615645e+00  1.79854498e+00  1.80194842e+00  1.80495631e+00
  1.81100494e+00  1.81297523e+00  1.81643261e+00  1.82565163e+00
  1.82685839e+00  1.83019349e+00  1.83742351e+00  1.84166020e+00
  1.84505174e+00  1.85295495e+00  1.85318730e+00  1.86058370e+00
  1.86491195e+00  1.87060559e+00  1.87746609e+00  1.88338342e+00
  1.89044754e+00  1.90195857e+00  1.91576596e+00  1.92161786e+00
  1.92514335e+00  1.92963469e+00  1.93939231e+00  1.94098000e+00
  1.94724335e+00  1.95361802e+00  1.95839829e+00  1.96418755e+00
  1.97644066e+00  1.97989029e+00  1.99231575e+00  1.99276934e+00
  1.99976565e+00  2.00059622e+00  2.00800019e+00  2.01371874e+00
  2.02059979e+00  2.03466892e+00  2.03947872e+00  2.04403865e+00
  2.04988774e+00  2.05307988e+00  2.05808780e+00  2.07477833e+00
  2.07635337e+00  2.08588019e+00  2.09455092e+00  2.10001740e+00
  2.10283435e+00  2.11700460e+00  2.12277762e+00  2.12659290e+00
  2.13045793e+00  2.13390653e+00  2.14148918e+00  2.14649062e+00
  2.15412319e+00  2.16998533e+00  2.17793555e+00  2.18266727e+00
  2.18702511e+00  2.19745140e+00  2.20805542e+00  2.21041717e+00
  2.21757684e+00  2.22011266e+00  2.22742473e+00  2.22992718e+00
  2.23480571e+00  2.23827914e+00  2.24505660e+00  2.24631460e+00
  2.25323816e+00  2.25723493e+00  2.26277267e+00  2.26396406e+00
  2.26579374e+00  2.27737085e+00  2.28100671e+00  2.28794757e+00
  2.30051438e+00  2.30355481e+00  2.30738315e+00  2.31846476e+00
  2.32064676e+00  2.33654085e+00  2.33871852e+00  2.34465405e+00
  2.35049730e+00  2.35690045e+00  2.35905854e+00  2.37166095e+00
  2.37668735e+00  2.38403617e+00  2.39738383e+00  2.40214540e+00
  2.40743107e+00  2.41381315e+00  2.41665588e+00  2.42775269e+00
  2.43252427e+00  2.44051345e+00  2.45926029e+00  2.46889663e+00
  2.47502003e+00  2.48685755e+00  2.49161426e+00  2.50288541e+00
  2.50677387e+00  2.51676485e+00  2.51914330e+00  2.52793744e+00
  2.53479075e+00  2.54218667e+00  2.54350078e+00  2.55733413e+00
  2.56221673e+00  2.57139649e+00  2.57811003e+00  2.58346441e+00
  2.59518558e+00  2.60202544e+00  2.61186635e+00  2.61912345e+00
  2.62396076e+00  2.62969202e+00  2.63341711e+00  2.64396806e+00
  2.64510370e+00  2.65166056e+00  2.65424491e+00  2.66524706e+00
  2.66802199e+00  2.67393524e+00  2.67874644e+00  2.68170024e+00
  2.68727252e+00  2.69612525e+00  2.69950881e+00  2.70304555e+00
  2.70855760e+00  2.71997742e+00  2.72646109e+00  2.73046319e+00
  2.73145806e+00  2.73766286e+00  2.74075653e+00  2.74156881e+00
  2.74679759e+00  2.74960607e+00  2.75204742e+00  2.75563259e+00
  2.76048670e+00  2.76494561e+00  2.76652684e+00  2.77565936e+00
  2.78060432e+00  2.78462346e+00  2.79203271e+00  2.79223849e+00
  2.79680758e+00  2.79915160e+00  2.80304589e+00  2.80437105e+00
  2.80536120e+00  2.81738673e+00  2.82418405e+00  2.82984847e+00
  2.83422365e+00  2.84776108e+00  2.85233879e+00  2.85634750e+00
  2.85882132e+00  2.86556431e+00  2.87003054e+00  2.87290276e+00
  2.88123300e+00  2.88429601e+00  2.88736690e+00  2.89236061e+00
  2.89860462e+00  2.90110303e+00  2.90613813e+00  2.90860348e+00
  2.91044401e+00  2.91845526e+00  2.92007459e+00  2.92487925e+00
  2.92976353e+00  2.93172854e+00  2.93652866e+00  2.94098281e+00
  2.94519482e+00  2.95022327e+00  2.95306906e+00  2.96469388e+00
  2.96864444e+00  2.97209023e+00  2.97438935e+00  2.98524829e+00
  2.99288771e+00  2.99351569e+00  3.00042210e+00  3.00732130e+00
  3.01495375e+00  3.01815401e+00  3.02548834e+00  3.02757827e+00
  3.03506069e+00  3.03659778e+00  3.04104381e+00  3.04842038e+00
  3.05907235e+00  3.06204584e+00  3.06344043e+00  3.06659593e+00
  3.07602281e+00  3.07933786e+00  3.08538513e+00  3.09267577e+00
  3.09367648e+00  3.09924662e+00  3.10398867e+00  3.11290563e+00
  3.12115079e+00  3.12525793e+00  3.13192120e+00  3.13906224e+00
  3.14581835e+00  3.15216800e+00  3.16364031e+00  3.16437970e+00
  3.17206474e+00  3.17327251e+00  3.17886519e+00  3.18361702e+00
  3.18820531e+00  3.19192743e+00  3.20225256e+00  3.20380618e+00
  3.21091660e+00  3.21367800e+00  3.21560935e+00  3.21822957e+00
  3.21962214e+00  3.22673297e+00  3.22817767e+00  3.22992010e+00
  3.23258409e+00  3.23901773e+00  3.24099691e+00  3.24571919e+00
  3.24796423e+00  3.25371872e+00  3.25555499e+00  3.26328465e+00
  3.26578493e+00  3.27339851e+00  3.27470436e+00  3.28108198e+00
  3.28816396e+00  3.29221686e+00  3.29347839e+00  3.29574934e+00
  3.30208799e+00  3.30766199e+00  3.30886525e+00  3.31451520e+00
  3.32108763e+00  3.32290077e+00  3.33123595e+00  3.33563319e+00
  3.33871314e+00  3.34526482e+00  3.35323009e+00  3.35529399e+00
  3.35910174e+00  3.36393888e+00  3.36814219e+00  3.37400510e+00
  3.37688011e+00  3.38235698e+00  3.38524143e+00  3.38719260e+00
  3.39250176e+00  3.39615942e+00  3.40011740e+00  3.40393586e+00
  3.40909597e+00  3.41031548e+00  3.41940582e+00  3.42175693e+00
  3.42715486e+00  3.42918203e+00  3.43720953e+00  3.43898241e+00
  3.44794231e+00  3.45435042e+00  3.45507727e+00  3.46403057e+00
  3.46582500e+00  3.47062466e+00  3.47452474e+00  3.47946238e+00
  3.48120320e+00  3.48459678e+00  3.48990866e+00  3.49790965e+00
  3.50237671e+00  3.50298373e+00  3.50810914e+00  3.50834155e+00
  3.51891087e+00  3.52147253e+00  3.52463359e+00  3.53332028e+00
  3.53762408e+00  3.54434705e+00  3.55384181e+00  3.55558207e+00
  3.55631124e+00  3.55874142e+00  3.56538458e+00  3.57164266e+00
  3.57701165e+00  3.58190066e+00  3.58738904e+00  3.58814557e+00
  3.59126852e+00  3.59515711e+00  3.59762723e+00  3.60216539e+00
  3.60930025e+00  3.61073387e+00  3.61411619e+00  3.61675233e+00
  3.62340475e+00  3.62717448e+00  3.64249663e+00  3.64406300e+00
  3.64681839e+00  3.66066249e+00  3.66604012e+00  3.67466454e+00
  3.67521129e+00  3.68546896e+00  3.69577771e+00  3.70324618e+00
  3.70984439e+00  3.71122391e+00  3.71722804e+00  3.72499622e+00
  3.74182314e+00  3.74822266e+00  3.75522922e+00  3.76642560e+00
  3.77466199e+00  3.78518682e+00  3.79509404e+00  3.79944119e+00
  3.81542248e+00  3.82027898e+00  3.82603393e+00  3.83937182e+00
  3.84616858e+00  3.84741675e+00  3.85078535e+00  3.86377333e+00
  3.86755274e+00  3.87797939e+00  3.88827858e+00  3.89457609e+00
  3.89827385e+00  3.91290759e+00  3.91855377e+00  3.93089487e+00
  3.93471870e+00  3.95000351e+00  3.95516818e+00  3.96695579e+00
  3.97043148e+00  3.98028196e+00  3.98588169e+00  3.99920790e+00
  4.00582581e+00  4.01257944e+00  4.01552103e+00  4.02357646e+00
  4.03790019e+00  4.04110177e+00  4.04784718e+00  4.05423913e+00
  4.06194334e+00  4.07088023e+00  4.07736887e+00  4.08603053e+00
  4.09489802e+00  4.09670363e+00  4.10402111e+00  4.10661555e+00
  4.11695804e+00  4.12499346e+00  4.13338636e+00  4.13609734e+00
  4.14971491e+00  4.17026574e+00  4.18060892e+00  4.18662742e+00
  4.19563810e+00  4.20849500e+00  4.21764794e+00  4.22111750e+00
  4.23656890e+00  4.23940571e+00  4.24865740e+00  4.25392003e+00
  4.25697746e+00  4.26093217e+00  4.26606996e+00  4.27280998e+00
  4.27906832e+00  4.28474697e+00  4.28932655e+00  4.29173962e+00
  4.29636406e+00  4.30344935e+00  4.30511541e+00  4.31399919e+00
  4.31967049e+00  4.32119146e+00  4.32945388e+00  4.33445720e+00
  4.34556638e+00  4.34903751e+00  4.36219206e+00  4.36437177e+00
  4.37502768e+00  4.37819915e+00  4.38420872e+00  4.39349824e+00
  4.40482546e+00  4.41424089e+00  4.42096014e+00  4.44088683e+00
  4.44624165e+00  4.45988998e+00  4.46973842e+00  4.48712249e+00
  4.50006536e+00  4.51883632e+00  4.52151900e+00  4.53835574e+00
  4.54363849e+00  4.56136595e+00  4.58365837e+00  4.59212789e+00
  4.59670252e+00  4.60647692e+00  4.62911473e+00  4.64257533e+00
  4.66427021e+00  4.67053264e+00  4.68287199e+00  4.68690529e+00
  4.70219852e+00  4.71115404e+00  4.73488110e+00  4.74352864e+00
  4.75267352e+00  4.76492759e+00  4.77135570e+00  4.77836197e+00
  4.79570498e+00  4.80469416e+00  4.81205846e+00  4.82614576e+00
  4.83680332e+00  4.84986975e+00  4.87667344e+00  4.87937500e+00
  4.88555305e+00  4.90538264e+00  4.91704844e+00  4.92400339e+00
  4.93429836e+00  4.94375798e+00  4.95903660e+00  4.96292500e+00
  4.96729285e+00  4.97817725e+00  4.99437125e+00  4.99503538e+00
  5.02162623e+00  5.02881432e+00  5.03475635e+00  5.05039264e+00
  5.05373241e+00  5.06534610e+00  5.07436282e+00  5.09062576e+00
  5.12316966e+00  5.13430320e+00  5.15212471e+00  5.17890670e+00
  5.18439991e+00  5.19030924e+00  5.22215722e+00  5.22415541e+00
  5.23034277e+00  5.24628169e+00  5.25939159e+00  5.26538687e+00
  5.26643767e+00  5.27778953e+00  5.28240790e+00  5.28617211e+00
  5.30920735e+00  5.34955394e+00  5.35118110e+00  5.35651636e+00
  5.37204526e+00  5.37368197e+00  5.40291462e+00  5.40390959e+00
  5.41097361e+00  5.42638795e+00  5.43462109e+00  5.47219821e+00
  5.47692085e+00  5.48338390e+00  5.49082511e+00  5.50110812e+00
  5.52942357e+00  5.54566715e+00  5.55765890e+00  5.57044733e+00
  5.57438970e+00  5.57497829e+00  5.58322495e+00  5.60215887e+00
  5.62226088e+00  5.62991393e+00  5.66718120e+00  5.69347894e+00
  5.71768583e+00  5.72695136e+00  5.75737156e+00  5.76331027e+00
  5.79422950e+00  5.80629426e+00  5.81341127e+00  5.85005920e+00
  5.87292534e+00  5.88621601e+00  5.91381979e+00  5.99506793e+00
  6.03383681e+00  6.07311726e+00  6.08898591e+00  6.14939333e+00
  6.15684962e+00  6.27079948e+00  6.29942598e+00  6.32334103e+00
  6.37368166e+00  6.37941015e+00  6.44950495e+00  6.47456448e+00
  6.48153301e+00  6.50014167e+00  6.52244334e+00  6.53098775e+00
  6.57782392e+00  6.69533628e+00  6.79453018e+00  6.81397219e+00
  6.88146166e+00  6.90354002e+00  6.96247475e+00  6.98408481e+00
  7.07134184e+00  7.09133222e+00  7.22827746e+00  7.26721014e+00
  7.34993682e+00  7.36447188e+00  2.21717629e+01  2.21965177e+01
  2.22601933e+01  2.25493554e+01  2.26031659e+01  2.26070074e+01
  2.26720912e+01  2.26884310e+01  2.26974325e+01  2.27077990e+01
  2.27283831e+01  2.27461653e+01  2.27496273e+01  2.27756548e+01
  2.27880503e+01  2.28039486e+01  2.29211131e+01  2.29357389e+01
  2.30068285e+01  2.31447658e+01  2.31633478e+01  2.32234057e+01
  2.33186873e+01  2.33818417e+01  2.35516060e+01  2.35842596e+01
  3.25577682e+01  3.27086317e+01  3.31673887e+01  4.39451203e+01
  4.39583522e+01  4.41013797e+01]
nelec by numeric integration = 222.00012290246804
    CPU time for vxc    159.35 sec, wall time      9.32 sec
    CPU time for df vj and vk    573.37 sec, wall time     39.52 sec
    CPU time for df vj and vk    454.53 sec, wall time     25.10 sec
E1 = -7592.2604182493815  Ecoul = 3526.67431965939  Exc = -195.18828131681423
cycle= 2 E= -1393.47518712412  delta_E= 2.64e-11  |g|= 1.53e-05  |ddm|= 2.4e-05
    CPU time for cycle= 2   1196.23 sec, wall time     75.23 sec
  HOMO = -0.256855741882787  LUMO = 0.00326807210608057
  mo_energy =
[-1.92438535e+01 -1.92201609e+01 -1.91470399e+01 -1.44551250e+01
 -1.44477965e+01 -1.44038481e+01 -1.03496536e+01 -1.03438424e+01
 -1.03404123e+01 -1.03249923e+01 -1.03221838e+01 -1.03164370e+01
 -1.03083631e+01 -1.03026656e+01 -1.02939647e+01 -1.02926988e+01
 -1.02922267e+01 -1.02875605e+01 -1.02868812e+01 -1.02827667e+01
 -1.02820290e+01 -1.02819500e+01 -1.02808683e+01 -1.02793635e+01
 -1.02790420e+01 -1.02768205e+01 -1.02630418e+01 -1.02594741e+01
 -1.02584899e+01 -1.02558778e+01 -1.02511378e+01 -1.02483696e+01
 -1.20622368e+00 -1.18116142e+00 -1.17180523e+00 -1.12523978e+00
 -1.09894540e+00 -1.03656219e+00 -1.00962424e+00 -1.00368427e+00
 -9.77489014e-01 -9.53670014e-01 -9.16697426e-01 -9.08359723e-01
 -8.97595159e-01 -8.90839074e-01 -8.83093926e-01 -8.69244269e-01
 -8.67358853e-01 -8.39186075e-01 -8.16436967e-01 -7.86122133e-01
 -7.66912156e-01 -7.50084107e-01 -7.43669209e-01 -7.35363561e-01
 -7.32798144e-01 -7.20130934e-01 -7.05668648e-01 -6.90762741e-01
 -6.77016882e-01 -6.65540454e-01 -6.52750121e-01 -6.47342562e-01
 -6.42768408e-01 -6.35284232e-01 -6.04618830e-01 -5.99850848e-01
 -5.94367555e-01 -5.86239913e-01 -5.83369771e-01 -5.81893487e-01
 -5.72953829e-01 -5.67918544e-01 -5.60812002e-01 -5.49957227e-01
 -5.44881864e-01 -5.44187039e-01 -5.42856741e-01 -5.40943238e-01
 -5.34554825e-01 -5.26550349e-01 -5.22231324e-01 -5.19220815e-01
 -5.15549716e-01 -5.12445377e-01 -5.11722800e-01 -5.01539417e-01
 -5.01027844e-01 -4.95387539e-01 -4.85883107e-01 -4.74017686e-01
 -4.70942249e-01 -4.63100587e-01 -4.58959178e-01 -4.57812732e-01
 -4.56740038e-01 -4.45369861e-01 -4.33244774e-01 -4.29547882e-01
 -4.23096713e-01 -4.16706007e-01 -3.69696662e-01 -3.68049478e-01
 -3.64163614e-01 -3.56706416e-01 -3.46410323e-01 -3.38992490e-01
 -3.15783453e-01 -3.01181369e-01 -2.56855742e-01  3.26807211e-03
  2.96109250e-02  4.42148772e-02  4.52508311e-02  4.98147605e-02
  7.23555609e-02  9.02395728e-02  9.66366865e-02  1.04369572e-01
  1.07445469e-01  1.21932554e-01  1.26242909e-01  1.31256183e-01
  1.37009108e-01  1.39264169e-01  1.46922351e-01  1.54095174e-01
  1.58994792e-01  1.68255948e-01  1.70287864e-01  1.72324499e-01
  1.74974104e-01  1.77485736e-01  1.80665822e-01  1.85554742e-01
  1.92470068e-01  1.96346514e-01  1.97717341e-01  2.02432420e-01
  2.06716040e-01  2.08468372e-01  2.10535351e-01  2.18773374e-01
  2.25012789e-01  2.29189877e-01  2.30329145e-01  2.34740101e-01
  2.39550102e-01  2.43617135e-01  2.47432149e-01  2.49136679e-01
  2.50551504e-01  2.54024253e-01  2.59708487e-01  2.67361955e-01
  2.70786633e-01  2.73476150e-01  2.76852430e-01  2.79217585e-01
  2.83789582e-01  2.89104883e-01  2.92313402e-01  2.95501131e-01
  2.97675657e-01  3.01834179e-01  3.05757782e-01  3.08947345e-01
  3.10217828e-01  3.13442094e-01  3.13739181e-01  3.16189693e-01
  3.17375231e-01  3.25413523e-01  3.27814042e-01  3.29146667e-01
  3.32970095e-01  3.35471772e-01  3.43618494e-01  3.44765585e-01
  3.50623263e-01  3.53675578e-01  3.55793303e-01  3.59163037e-01
  3.61435037e-01  3.66003230e-01  3.68637075e-01  3.74527343e-01
  3.75788222e-01  3.79549495e-01  3.83977510e-01  3.89227040e-01
  3.92014517e-01  3.92812917e-01  3.94210181e-01  3.97569619e-01
  4.05610885e-01  4.08172549e-01  4.13658422e-01  4.15531640e-01
  4.20488931e-01  4.22031894e-01  4.24198385e-01  4.30081786e-01
  4.30955940e-01  4.33654354e-01  4.35292074e-01  4.39916421e-01
  4.40490282e-01  4.41655812e-01  4.45023952e-01  4.46660994e-01
  4.49654676e-01  4.50778454e-01  4.51779279e-01  4.57117813e-01
  4.60386663e-01  4.62089966e-01  4.67703413e-01  4.70881629e-01
  4.74850132e-01  4.76514988e-01  4.80753256e-01  4.83353501e-01
  4.86895734e-01  4.88349139e-01  4.89735983e-01  4.92362781e-01
  4.96344286e-01  5.01627930e-01  5.05567091e-01  5.09259362e-01
  5.14030061e-01  5.15522069e-01  5.16306548e-01  5.21521923e-01
  5.25784336e-01  5.29050014e-01  5.34430740e-01  5.35507634e-01
  5.36433209e-01  5.40145671e-01  5.41439573e-01  5.42553933e-01
  5.51316504e-01  5.51904772e-01  5.54800735e-01  5.58232303e-01
  5.65758416e-01  5.67416621e-01  5.71604658e-01  5.73533101e-01
  5.75715399e-01  5.78808155e-01  5.79779798e-01  5.84072571e-01
  5.84846152e-01  5.88123288e-01  5.93098304e-01  5.96227051e-01
  6.04365548e-01  6.07961897e-01  6.15102472e-01  6.19661218e-01
  6.21677715e-01  6.26772421e-01  6.31242152e-01  6.35449110e-01
  6.42272490e-01  6.44689315e-01  6.49184437e-01  6.51473281e-01
  6.59009961e-01  6.61748530e-01  6.67443661e-01  6.68856917e-01
  6.71311894e-01  6.76845576e-01  6.83320863e-01  6.89367004e-01
  6.93310671e-01  6.95262022e-01  7.00000216e-01  7.09785552e-01
  7.12564138e-01  7.17871796e-01  7.19681683e-01  7.25530832e-01
  7.28284199e-01  7.32531787e-01  7.34607544e-01  7.36656161e-01
  7.41391534e-01  7.47108946e-01  7.49794868e-01  7.52220763e-01
  7.61303907e-01  7.65364589e-01  7.66813679e-01  7.72580094e-01
  7.74532978e-01  7.79621112e-01  7.79999945e-01  7.85143537e-01
  7.89021050e-01  7.93331101e-01  7.94314305e-01  7.98964135e-01
  8.02077594e-01  8.11515909e-01  8.12213502e-01  8.14571227e-01
  8.19979219e-01  8.21949245e-01  8.26175209e-01  8.31255831e-01
  8.33478518e-01  8.37764687e-01  8.41711493e-01  8.46076405e-01
  8.48589997e-01  8.52221765e-01  8.56495632e-01  8.60194010e-01
  8.70489758e-01  8.71760858e-01  8.76078488e-01  8.81615814e-01
  8.85138392e-01  8.90335835e-01  8.96824065e-01  9.04255746e-01
  9.05464079e-01  9.11364567e-01  9.16648050e-01  9.19772338e-01
  9.23799892e-01  9.28983106e-01  9.30824737e-01  9.37880595e-01
  9.40270340e-01  9.49560767e-01  9.50129343e-01  9.53770700e-01
  9.57815184e-01  9.66398040e-01  9.71639528e-01  9.74972186e-01
  9.77510202e-01  9.81978907e-01  9.86756022e-01  9.92380127e-01
  9.99323544e-01  1.00022739e+00  1.00782937e+00  1.01185110e+00
  1.01542591e+00  1.02425574e+00  1.02869743e+00  1.03444943e+00
  1.04295527e+00  1.05350455e+00  1.06141385e+00  1.06834753e+00
  1.07317999e+00  1.08266938e+00  1.08756689e+00  1.09223190e+00
  1.10139934e+00  1.10916153e+00  1.11657424e+00  1.12201318e+00
  1.12570525e+00  1.13190260e+00  1.13677629e+00  1.14149670e+00
  1.14483231e+00  1.14624738e+00  1.15405285e+00  1.16122454e+00
  1.16324845e+00  1.16923496e+00  1.17099819e+00  1.18000665e+00
  1.18767729e+00  1.19050400e+00  1.20009212e+00  1.20620254e+00
  1.21693884e+00  1.22000806e+00  1.22531415e+00  1.23501139e+00
  1.24074447e+00  1.24987739e+00  1.25416895e+00  1.26598671e+00
  1.27113918e+00  1.28077697e+00  1.28428695e+00  1.29191252e+00
  1.29702052e+00  1.29845632e+00  1.30464139e+00  1.30855420e+00
  1.31182394e+00  1.31481594e+00  1.31652861e+00  1.32526953e+00
  1.33006665e+00  1.33353608e+00  1.34141740e+00  1.34361846e+00
  1.34662988e+00  1.35330159e+00  1.35725657e+00  1.36606583e+00
  1.37106098e+00  1.37605025e+00  1.37731913e+00  1.38085153e+00
  1.39003549e+00  1.39321716e+00  1.40702914e+00  1.40892474e+00
  1.41104597e+00  1.42140360e+00  1.42522519e+00  1.42885812e+00
  1.43182685e+00  1.44485502e+00  1.44740636e+00  1.45146527e+00
  1.45605824e+00  1.45987243e+00  1.47631006e+00  1.48363377e+00
  1.48743503e+00  1.48978875e+00  1.49841054e+00  1.50582744e+00
  1.51748445e+00  1.52342782e+00  1.52753180e+00  1.53506499e+00
  1.53894774e+00  1.54124628e+00  1.54360192e+00  1.55362573e+00
  1.55453721e+00  1.55862332e+00  1.56244357e+00  1.56645169e+00
  1.57097538e+00  1.58116630e+00  1.58498017e+00  1.59421591e+00
  1.59879941e+00  1.60240985e+00  1.60473161e+00  1.60904822e+00
  1.61267354e+00  1.61561218e+00  1.62077157e+00  1.63566246e+00
  1.63719073e+00  1.64368261e+00  1.64658591e+00  1.65733875e+00
  1.66180223e+00  1.66285233e+00  1.66796974e+00  1.67232145e+00
  1.67864944e+00  1.69095388e+00  1.69280944e+00  1.69832707e+00
  1.70292182e+00  1.70913599e+00  1.71196580e+00  1.71381692e+00
  1.72145720e+00  1.72463884e+00  1.73041178e+00  1.73257596e+00
  1.74038074e+00  1.74701747e+00  1.74825142e+00  1.75289642e+00
  1.75706175e+00  1.76002750e+00  1.76704040e+00  1.77374963e+00
  1.77556721e+00  1.77944636e+00  1.78692311e+00  1.78944314e+00
  1.79615646e+00  1.79854501e+00  1.80194844e+00  1.80495628e+00
  1.81100485e+00  1.81297512e+00  1.81643264e+00  1.82565152e+00
  1.82685827e+00  1.83019342e+00  1.83742345e+00  1.84166015e+00
  1.84505171e+00  1.85295487e+00  1.85318724e+00  1.86058371e+00
  1.86491191e+00  1.87060552e+00  1.87746602e+00  1.88338337e+00
  1.89044754e+00  1.90195852e+00  1.91576585e+00  1.92161786e+00
  1.92514324e+00  1.92963459e+00  1.93939221e+00  1.94097997e+00
  1.94724329e+00  1.95361792e+00  1.95839833e+00  1.96418748e+00
  1.97644068e+00  1.97989015e+00  1.99231576e+00  1.99276926e+00
  1.99976558e+00  2.00059625e+00  2.00800020e+00  2.01371862e+00
  2.02059976e+00  2.03466891e+00  2.03947875e+00  2.04403870e+00
  2.04988775e+00  2.05307972e+00  2.05808779e+00  2.07477837e+00
  2.07635333e+00  2.08588008e+00  2.09455097e+00  2.10001746e+00
  2.10283433e+00  2.11700460e+00  2.12277748e+00  2.12659298e+00
  2.13045773e+00  2.13390654e+00  2.14148913e+00  2.14649070e+00
  2.15412314e+00  2.16998539e+00  2.17793560e+00  2.18266734e+00
  2.18702514e+00  2.19745142e+00  2.20805542e+00  2.21041698e+00
  2.21757672e+00  2.22011265e+00  2.22742472e+00  2.22992731e+00
  2.23480577e+00  2.23827915e+00  2.24505664e+00  2.24631466e+00
  2.25323813e+00  2.25723494e+00  2.26277255e+00  2.26396406e+00
  2.26579376e+00  2.27737080e+00  2.28100663e+00  2.28794762e+00
  2.30051443e+00  2.30355474e+00  2.30738307e+00  2.31846484e+00
  2.32064679e+00  2.33654084e+00  2.33871851e+00  2.34465402e+00
  2.35049725e+00  2.35690050e+00  2.35905856e+00  2.37166085e+00
  2.37668730e+00  2.38403611e+00  2.39738371e+00  2.40214514e+00
  2.40743094e+00  2.41381305e+00  2.41665571e+00  2.42775268e+00
  2.43252420e+00  2.44051356e+00  2.45926014e+00  2.46889663e+00
  2.47501998e+00  2.48685757e+00  2.49161408e+00  2.50288547e+00
  2.50677377e+00  2.51676480e+00  2.51914318e+00  2.52793741e+00
  2.53479081e+00  2.54218678e+00  2.54350071e+00  2.55733411e+00
  2.56221669e+00  2.57139633e+00  2.57811006e+00  2.58346434e+00
  2.59518560e+00  2.60202552e+00  2.61186634e+00  2.61912337e+00
  2.62396054e+00  2.62969195e+00  2.63341708e+00  2.64396808e+00
  2.64510368e+00  2.65166053e+00  2.65424488e+00  2.66524708e+00
  2.66802193e+00  2.67393516e+00  2.67874647e+00  2.68170024e+00
  2.68727256e+00  2.69612521e+00  2.69950877e+00  2.70304549e+00
  2.70855766e+00  2.71997747e+00  2.72646103e+00  2.73046319e+00
  2.73145799e+00  2.73766273e+00  2.74075645e+00  2.74156873e+00
  2.74679757e+00  2.74960609e+00  2.75204731e+00  2.75563262e+00
  2.76048680e+00  2.76494569e+00  2.76652690e+00  2.77565943e+00
  2.78060430e+00  2.78462350e+00  2.79203273e+00  2.79223849e+00
  2.79680739e+00  2.79915156e+00  2.80304584e+00  2.80437112e+00
  2.80536116e+00  2.81738673e+00  2.82418403e+00  2.82984845e+00
  2.83422369e+00  2.84776111e+00  2.85233873e+00  2.85634748e+00
  2.85882140e+00  2.86556432e+00  2.87003059e+00  2.87290280e+00
  2.88123305e+00  2.88429592e+00  2.88736693e+00  2.89236072e+00
  2.89860461e+00  2.90110301e+00  2.90613816e+00  2.90860347e+00
  2.91044399e+00  2.91845516e+00  2.92007458e+00  2.92487930e+00
  2.92976362e+00  2.93172863e+00  2.93652858e+00  2.94098287e+00
  2.94519477e+00  2.95022339e+00  2.95306917e+00  2.96469386e+00
  2.96864449e+00  2.97209019e+00  2.97438933e+00  2.98524827e+00
  2.99288776e+00  2.99351573e+00  3.00042212e+00  3.00732125e+00
  3.01495366e+00  3.01815405e+00  3.02548829e+00  3.02757817e+00
  3.03506067e+00  3.03659773e+00  3.04104372e+00  3.04842028e+00
  3.05907220e+00  3.06204579e+00  3.06344037e+00  3.06659585e+00
  3.07602282e+00  3.07933775e+00  3.08538489e+00  3.09267553e+00
  3.09367639e+00  3.09924657e+00  3.10398852e+00  3.11290549e+00
  3.12115068e+00  3.12525787e+00  3.13192112e+00  3.13906213e+00
  3.14581830e+00  3.15216786e+00  3.16364024e+00  3.16437962e+00
  3.17206466e+00  3.17327251e+00  3.17886500e+00  3.18361683e+00
  3.18820521e+00  3.19192727e+00  3.20225240e+00  3.20380619e+00
  3.21091654e+00  3.21367798e+00  3.21560935e+00  3.21822952e+00
  3.21962213e+00  3.22673294e+00  3.22817766e+00  3.22992009e+00
  3.23258401e+00  3.23901757e+00  3.24099695e+00  3.24571918e+00
  3.24796423e+00  3.25371865e+00  3.25555504e+00  3.26328463e+00
  3.26578492e+00  3.27339853e+00  3.27470435e+00  3.28108198e+00
  3.28816385e+00  3.29221683e+00  3.29347829e+00  3.29574928e+00
  3.30208799e+00  3.30766191e+00  3.30886525e+00  3.31451520e+00
  3.32108759e+00  3.32290076e+00  3.33123589e+00  3.33563317e+00
  3.33871310e+00  3.34526491e+00  3.35323017e+00  3.35529399e+00
  3.35910171e+00  3.36393897e+00  3.36814220e+00  3.37400515e+00
  3.37688014e+00  3.38235693e+00  3.38524139e+00  3.38719258e+00
  3.39250174e+00  3.39615944e+00  3.40011736e+00  3.40393601e+00
  3.40909594e+00  3.41031548e+00  3.41940580e+00  3.42175689e+00
  3.42715484e+00  3.42918206e+00  3.43720945e+00  3.43898248e+00
  3.44794238e+00  3.45435043e+00  3.45507732e+00  3.46403052e+00
  3.46582499e+00  3.47062465e+00  3.47452477e+00  3.47946243e+00
  3.48120322e+00  3.48459690e+00  3.48990879e+00  3.49790960e+00
  3.50237663e+00  3.50298367e+00  3.50810915e+00  3.50834157e+00
  3.51891080e+00  3.52147251e+00  3.52463367e+00  3.53332032e+00
  3.53762411e+00  3.54434700e+00  3.55384175e+00  3.55558210e+00
  3.55631118e+00  3.55874140e+00  3.56538460e+00  3.57164257e+00
  3.57701166e+00  3.58190062e+00  3.58738900e+00  3.58814558e+00
  3.59126853e+00  3.59515710e+00  3.59762716e+00  3.60216538e+00
  3.60930029e+00  3.61073386e+00  3.61411615e+00  3.61675224e+00
  3.62340464e+00  3.62717450e+00  3.64249659e+00  3.64406302e+00
  3.64681826e+00  3.66066235e+00  3.66603994e+00  3.67466455e+00
  3.67521129e+00  3.68546892e+00  3.69577774e+00  3.70324620e+00
  3.70984441e+00  3.71122372e+00  3.71722798e+00  3.72499618e+00
  3.74182300e+00  3.74822255e+00  3.75522915e+00  3.76642565e+00
  3.77466182e+00  3.78518677e+00  3.79509398e+00  3.79944106e+00
  3.81542245e+00  3.82027896e+00  3.82603394e+00  3.83937171e+00
  3.84616861e+00  3.84741678e+00  3.85078533e+00  3.86377321e+00
  3.86755283e+00  3.87797931e+00  3.88827843e+00  3.89457596e+00
  3.89827363e+00  3.91290755e+00  3.91855380e+00  3.93089473e+00
  3.93471844e+00  3.95000350e+00  3.95516798e+00  3.96695575e+00
  3.97043137e+00  3.98028191e+00  3.98588168e+00  3.99920787e+00
  4.00582579e+00  4.01257942e+00  4.01552095e+00  4.02357632e+00
  4.03790016e+00  4.04110163e+00  4.04784689e+00  4.05423899e+00
  4.06194327e+00  4.07088003e+00  4.07736884e+00  4.08603056e+00
  4.09489798e+00  4.09670360e+00  4.10402100e+00  4.10661563e+00
  4.11695797e+00  4.12499335e+00  4.13338632e+00  4.13609729e+00
  4.14971483e+00  4.17026576e+00  4.18060879e+00  4.18662740e+00
  4.19563805e+00  4.20849490e+00  4.21764793e+00  4.22111753e+00
  4.23656883e+00  4.23940564e+00  4.24865751e+00  4.25392010e+00
  4.25697755e+00  4.26093221e+00  4.26606990e+00  4.27280991e+00
  4.27906833e+00  4.28474708e+00  4.28932653e+00  4.29173969e+00
  4.29636405e+00  4.30344938e+00  4.30511544e+00  4.31399933e+00
  4.31967050e+00  4.32119133e+00  4.32945399e+00  4.33445726e+00
  4.34556637e+00  4.34903750e+00  4.36219216e+00  4.36437163e+00
  4.37502773e+00  4.37819915e+00  4.38420882e+00  4.39349819e+00
  4.40482539e+00  4.41424102e+00  4.42096005e+00  4.44088679e+00
  4.44624159e+00  4.45989005e+00  4.46973832e+00  4.48712260e+00
  4.50006529e+00  4.51883639e+00  4.52151884e+00  4.53835573e+00
  4.54363837e+00  4.56136594e+00  4.58365821e+00  4.59212783e+00
  4.59670233e+00  4.60647693e+00  4.62911473e+00  4.64257529e+00
  4.66427026e+00  4.67053264e+00  4.68287205e+00  4.68690531e+00
  4.70219863e+00  4.71115404e+00  4.73488110e+00  4.74352856e+00
  4.75267338e+00  4.76492763e+00  4.77135542e+00  4.77836166e+00
  4.79570496e+00  4.80469417e+00  4.81205852e+00  4.82614516e+00
  4.83680327e+00  4.84986971e+00  4.87667328e+00  4.87937475e+00
  4.88555295e+00  4.90538253e+00  4.91704856e+00  4.92400345e+00
  4.93429804e+00  4.94375813e+00  4.95903665e+00  4.96292493e+00
  4.96729291e+00  4.97817716e+00  4.99437121e+00  4.99503538e+00
  5.02162633e+00  5.02881435e+00  5.03475624e+00  5.05039232e+00
  5.05373239e+00  5.06534593e+00  5.07436274e+00  5.09062547e+00
  5.12316953e+00  5.13430320e+00  5.15212462e+00  5.17890662e+00
  5.18439922e+00  5.19030894e+00  5.22215688e+00  5.22415517e+00
  5.23034248e+00  5.24628154e+00  5.25939157e+00  5.26538679e+00
  5.26643751e+00  5.27778945e+00  5.28240767e+00  5.28617193e+00
  5.30920719e+00  5.34955409e+00  5.35118095e+00  5.35651677e+00
  5.37204632e+00  5.37368169e+00  5.40291428e+00  5.40390943e+00
  5.41097348e+00  5.42638794e+00  5.43462113e+00  5.47219776e+00
  5.47692084e+00  5.48338376e+00  5.49082521e+00  5.50110804e+00
  5.52942360e+00  5.54566708e+00  5.55765839e+00  5.57044737e+00
  5.57438954e+00  5.57497801e+00  5.58322498e+00  5.60215880e+00
  5.62226060e+00  5.62991373e+00  5.66718099e+00  5.69347858e+00
  5.71768583e+00  5.72695126e+00  5.75737151e+00  5.76331008e+00
  5.79422925e+00  5.80629454e+00  5.81341145e+00  5.85005917e+00
  5.87292483e+00  5.88621572e+00  5.91381979e+00  5.99506790e+00
  6.03383644e+00  6.07311684e+00  6.08898567e+00  6.14939269e+00
  6.15684902e+00  6.27079934e+00  6.29942728e+00  6.32334039e+00
  6.37368124e+00  6.37940993e+00  6.44950492e+00  6.47456419e+00
  6.48153274e+00  6.50014091e+00  6.52244287e+00  6.53099025e+00
  6.57782490e+00  6.69533830e+00  6.79452946e+00  6.81397170e+00
  6.88146096e+00  6.90353955e+00  6.96247706e+00  6.98408579e+00
  7.07134114e+00  7.09133175e+00  7.22827968e+00  7.26721179e+00
  7.34993622e+00  7.36447148e+00  2.21717630e+01  2.21965178e+01
  2.22601936e+01  2.25493555e+01  2.26031658e+01  2.26070072e+01
  2.26720914e+01  2.26884312e+01  2.26974328e+01  2.27077993e+01
  2.27283833e+01  2.27461655e+01  2.27496273e+01  2.27756547e+01
  2.27880503e+01  2.28039485e+01  2.29211134e+01  2.29357389e+01
  2.30068276e+01  2.31447658e+01  2.31633482e+01  2.32234060e+01
  2.33186873e+01  2.33818421e+01  2.35516045e+01  2.35842584e+01
  3.25577681e+01  3.27086323e+01  3.31673861e+01  4.39451190e+01
  4.39583512e+01  4.41013844e+01]
nelec by numeric integration = 222.0001229021915
    CPU time for vxc    150.73 sec, wall time      8.70 sec
    CPU time for df vj and vk    572.56 sec, wall time     37.96 sec
    CPU time for df vj and vk    448.11 sec, wall time     24.18 sec
E1 = -7592.260429186537  Ecoul = 3526.674329019391  Exc = -195.1882797396982
cycle= 3 E= -1393.47518712416  delta_E= -4e-11  |g|= 6.46e-07  |ddm|= 1.39e-05
    CPU time for cycle= 3   1180.76 sec, wall time     72.14 sec
  HOMO = -0.256855723440051  LUMO = 0.0032681020008351
  mo_energy =
[-1.92438539e+01 -1.92201612e+01 -1.91470401e+01 -1.44551250e+01
 -1.44477963e+01 -1.44038482e+01 -1.03496535e+01 -1.03438423e+01
 -1.03404122e+01 -1.03249924e+01 -1.03221837e+01 -1.03164368e+01
 -1.03083629e+01 -1.03026656e+01 -1.02939646e+01 -1.02926987e+01
 -1.02922267e+01 -1.02875605e+01 -1.02868812e+01 -1.02827667e+01
 -1.02820290e+01 -1.02819499e+01 -1.02808683e+01 -1.02793635e+01
 -1.02790420e+01 -1.02768205e+01 -1.02630417e+01 -1.02594740e+01
 -1.02584899e+01 -1.02558776e+01 -1.02511377e+01 -1.02483695e+01
 -1.20622380e+00 -1.18116152e+00 -1.17180519e+00 -1.12523977e+00
 -1.09894539e+00 -1.03656213e+00 -1.00962421e+00 -1.00368424e+00
 -9.77488969e-01 -9.53669974e-01 -9.16697391e-01 -9.08359703e-01
 -8.97595126e-01 -8.90839056e-01 -8.83093883e-01 -8.69244228e-01
 -8.67358812e-01 -8.39186042e-01 -8.16436939e-01 -7.86122103e-01
 -7.66912129e-01 -7.50084100e-01 -7.43669189e-01 -7.35363532e-01
 -7.32798124e-01 -7.20130914e-01 -7.05668628e-01 -6.90762711e-01
 -6.77016908e-01 -6.65540400e-01 -6.52750105e-01 -6.47342555e-01
 -6.42768391e-01 -6.35284218e-01 -6.04618797e-01 -5.99850840e-01
 -5.94367538e-01 -5.86239889e-01 -5.83369746e-01 -5.81893449e-01
 -5.72953785e-01 -5.67918529e-01 -5.60811984e-01 -5.49957214e-01
 -5.44881879e-01 -5.44187032e-01 -5.42856746e-01 -5.40943217e-01
 -5.34554804e-01 -5.26550350e-01 -5.22231301e-01 -5.19220835e-01
 -5.15549719e-01 -5.12445377e-01 -5.11722828e-01 -5.01539424e-01
 -5.01027849e-01 -4.95387530e-01 -4.85883093e-01 -4.74017686e-01
 -4.70942259e-01 -4.63100590e-01 -4.58959160e-01 -4.57812718e-01
 -4.56740018e-01 -4.45369856e-01 -4.33244790e-01 -4.29547862e-01
 -4.23096687e-01 -4.16706032e-01 -3.69696636e-01 -3.68049460e-01
 -3.64163597e-01 -3.56706406e-01 -3.46410354e-01 -3.38992455e-01
 -3.15783442e-01 -3.01181357e-01 -2.56855723e-01  3.26810200e-03
  2.96109667e-02  4.42148991e-02  4.52508531e-02  4.98147817e-02
  7.23555892e-02  9.02395966e-02  9.66367028e-02  1.04369570e-01
  1.07445495e-01  1.21932538e-01  1.26242920e-01  1.31256196e-01
  1.37009124e-01  1.39264183e-01  1.46922356e-01  1.54095183e-01
  1.58994801e-01  1.68255954e-01  1.70287875e-01  1.72324505e-01
  1.74974108e-01  1.77485751e-01  1.80665828e-01  1.85554755e-01
  1.92470092e-01  1.96346530e-01  1.97717345e-01  2.02432431e-01
  2.06716056e-01  2.08468384e-01  2.10535371e-01  2.18773392e-01
  2.25012802e-01  2.29189887e-01  2.30329160e-01  2.34740122e-01
  2.39550118e-01  2.43617133e-01  2.47432161e-01  2.49136694e-01
  2.50551518e-01  2.54024265e-01  2.59708492e-01  2.67361967e-01
  2.70786649e-01  2.73476170e-01  2.76852450e-01  2.79217615e-01
  2.83789599e-01  2.89104908e-01  2.92313424e-01  2.95501149e-01
  2.97675670e-01  3.01834200e-01  3.05757798e-01  3.08947358e-01
  3.10217845e-01  3.13442111e-01  3.13739195e-01  3.16189708e-01
  3.17375238e-01  3.25413536e-01  3.27814054e-01  3.29146682e-01
  3.32970109e-01  3.35471785e-01  3.43618511e-01  3.44765600e-01
  3.50623279e-01  3.53675596e-01  3.55793322e-01  3.59163048e-01
  3.61435049e-01  3.66003245e-01  3.68637082e-01  3.74527362e-01
  3.75788239e-01  3.79549514e-01  3.83977525e-01  3.89227055e-01
  3.92014528e-01  3.92812922e-01  3.94210193e-01  3.97569634e-01
  4.05610900e-01  4.08172558e-01  4.13658435e-01  4.15531655e-01
  4.20488945e-01  4.22031915e-01  4.24198392e-01  4.30081798e-01
  4.30955958e-01  4.33654367e-01  4.35292089e-01  4.39916437e-01
  4.40490301e-01  4.41655825e-01  4.45023962e-01  4.46661017e-01
  4.49654677e-01  4.50778470e-01  4.51779292e-01  4.57117824e-01
  4.60386668e-01  4.62089981e-01  4.67703426e-01  4.70881648e-01
  4.74850138e-01  4.76515006e-01  4.80753269e-01  4.83353512e-01
  4.86895745e-01  4.88349149e-01  4.89735997e-01  4.92362798e-01
  4.96344302e-01  5.01627945e-01  5.05567106e-01  5.09259376e-01
  5.14030083e-01  5.15522083e-01  5.16306560e-01  5.21521934e-01
  5.25784345e-01  5.29050025e-01  5.34430753e-01  5.35507641e-01
  5.36433217e-01  5.40145685e-01  5.41439588e-01  5.42553941e-01
  5.51316517e-01  5.51904790e-01  5.54800734e-01  5.58232315e-01
  5.65758416e-01  5.67416631e-01  5.71604669e-01  5.73533117e-01
  5.75715411e-01  5.78808168e-01  5.79779809e-01  5.84072584e-01
  5.84846168e-01  5.88123297e-01  5.93098312e-01  5.96227063e-01
  6.04365564e-01  6.07961918e-01  6.15102489e-01  6.19661230e-01
  6.21677718e-01  6.26772432e-01  6.31242144e-01  6.35449115e-01
  6.42272494e-01  6.44689328e-01  6.49184449e-01  6.51473289e-01
  6.59009968e-01  6.61748542e-01  6.67443670e-01  6.68856941e-01
  6.71311911e-01  6.76845590e-01  6.83320881e-01  6.89367023e-01
  6.93310690e-01  6.95262033e-01  7.00000237e-01  7.09785570e-01
  7.12564147e-01  7.17871822e-01  7.19681704e-01  7.25530853e-01
  7.28284221e-01  7.32531811e-01  7.34607556e-01  7.36656180e-01
  7.41391553e-01  7.47108965e-01  7.49794889e-01  7.52220784e-01
  7.61303929e-01  7.65364609e-01  7.66813693e-01  7.72580116e-01
  7.74532999e-01  7.79621125e-01  7.79999964e-01  7.85143559e-01
  7.89021067e-01  7.93331117e-01  7.94314331e-01  7.98964154e-01
  8.02077613e-01  8.11515932e-01  8.12213511e-01  8.14571247e-01
  8.19979225e-01  8.21949265e-01  8.26175229e-01  8.31255855e-01
  8.33478532e-01  8.37764709e-01  8.41711511e-01  8.46076427e-01
  8.48590010e-01  8.52221782e-01  8.56495650e-01  8.60194024e-01
  8.70489776e-01  8.71760871e-01  8.76078501e-01  8.81615828e-01
  8.85138413e-01  8.90335851e-01  8.96824077e-01  9.04255768e-01
  9.05464105e-01  9.11364581e-01  9.16648059e-01  9.19772352e-01
  9.23799899e-01  9.28983129e-01  9.30824744e-01  9.37880602e-01
  9.40270352e-01  9.49560775e-01  9.50129354e-01  9.53770704e-01
  9.57815203e-01  9.66398058e-01  9.71639545e-01  9.74972203e-01
  9.77510219e-01  9.81978924e-01  9.86756035e-01  9.92380145e-01
  9.99323565e-01  1.00022740e+00  1.00782938e+00  1.01185113e+00
  1.01542593e+00  1.02425577e+00  1.02869745e+00  1.03444945e+00
  1.04295530e+00  1.05350457e+00  1.06141387e+00  1.06834755e+00
  1.07318001e+00  1.08266940e+00  1.08756690e+00  1.09223192e+00
  1.10139936e+00  1.10916155e+00  1.11657425e+00  1.12201320e+00
  1.12570527e+00  1.13190262e+00  1.13677631e+00  1.14149671e+00
  1.14483233e+00  1.14624740e+00  1.15405286e+00  1.16122455e+00
  1.16324847e+00  1.16923498e+00  1.17099821e+00  1.18000666e+00
  1.18767730e+00  1.19050401e+00  1.20009213e+00  1.20620256e+00
  1.21693886e+00  1.22000807e+00  1.22531417e+00  1.23501141e+00
  1.24074449e+00  1.24987742e+00  1.25416897e+00  1.26598673e+00
  1.27113919e+00  1.28077699e+00  1.28428696e+00  1.29191253e+00
  1.29702053e+00  1.29845634e+00  1.30464140e+00  1.30855422e+00
  1.31182395e+00  1.31481596e+00  1.31652863e+00  1.32526955e+00
  1.33006667e+00  1.33353610e+00  1.34141742e+00  1.34361847e+00
  1.34662990e+00  1.35330160e+00  1.35725658e+00  1.36606584e+00
  1.37106100e+00  1.37605027e+00  1.37731915e+00  1.38085154e+00
  1.39003550e+00  1.39321718e+00  1.40702916e+00  1.40892477e+00
  1.41104599e+00  1.42140362e+00  1.42522520e+00  1.42885814e+00
  1.43182687e+00  1.44485504e+00  1.44740637e+00  1.45146530e+00
  1.45605827e+00  1.45987246e+00  1.47631008e+00  1.48363380e+00
  1.48743505e+00  1.48978877e+00  1.49841056e+00  1.50582746e+00
  1.51748447e+00  1.52342785e+00  1.52753183e+00  1.53506501e+00
  1.53894776e+00  1.54124631e+00  1.54360194e+00  1.55362574e+00
  1.55453723e+00  1.55862335e+00  1.56244359e+00  1.56645170e+00
  1.57097540e+00  1.58116632e+00  1.58498020e+00  1.59421592e+00
  1.59879943e+00  1.60240987e+00  1.60473163e+00  1.60904824e+00
  1.61267356e+00  1.61561220e+00  1.62077159e+00  1.63566247e+00
  1.63719076e+00  1.64368263e+00  1.64658593e+00  1.65733876e+00
  1.66180225e+00  1.66285235e+00  1.66796976e+00  1.67232146e+00
  1.67864946e+00  1.69095390e+00  1.69280946e+00  1.69832708e+00
  1.70292184e+00  1.70913601e+00  1.71196582e+00  1.71381695e+00
  1.72145723e+00  1.72463886e+00  1.73041181e+00  1.73257597e+00
  1.74038076e+00  1.74701748e+00  1.74825143e+00  1.75289643e+00
  1.75706176e+00  1.76002751e+00  1.76704042e+00  1.77374965e+00
[...]
  2.13045775e+00  2.13390654e+00  2.14148914e+00  2.14649072e+00
  2.15412314e+00  2.16998541e+00  2.17793562e+00  2.18266736e+00
  2.18702516e+00  2.19745144e+00  2.20805543e+00  2.21041700e+00
  2.21757673e+00  2.22011266e+00  2.22742472e+00  2.22992733e+00
  2.23480578e+00  2.23827916e+00  2.24505666e+00  2.24631467e+00
  2.25323815e+00  2.25723496e+00  2.26277254e+00  2.26396409e+00
  2.26579378e+00  2.27737082e+00  2.28100664e+00  2.28794764e+00
  2.30051445e+00  2.30355475e+00  2.30738309e+00  2.31846486e+00
  2.32064682e+00  2.33654087e+00  2.33871852e+00  2.34465403e+00
  2.35049727e+00  2.35690050e+00  2.35905858e+00  2.37166087e+00
  2.37668731e+00  2.38403612e+00  2.39738374e+00  2.40214519e+00
  2.40743094e+00  2.41381307e+00  2.41665573e+00  2.42775269e+00
  2.43252421e+00  2.44051358e+00  2.45926016e+00  2.46889663e+00
  2.47502000e+00  2.48685758e+00  2.49161410e+00  2.50288550e+00
  2.50677378e+00  2.51676482e+00  2.51914315e+00  2.52793743e+00
  2.53479083e+00  2.54218680e+00  2.54350072e+00  2.55733412e+00
  2.56221672e+00  2.57139634e+00  2.57811007e+00  2.58346434e+00
  2.59518562e+00  2.60202555e+00  2.61186636e+00  2.61912340e+00
  2.62396057e+00  2.62969197e+00  2.63341711e+00  2.64396810e+00
  2.64510369e+00  2.65166055e+00  2.65424490e+00  2.66524710e+00
  2.66802196e+00  2.67393518e+00  2.67874650e+00  2.68170026e+00
  2.68727259e+00  2.69612523e+00  2.69950880e+00  2.70304551e+00
  2.70855768e+00  2.71997750e+00  2.72646105e+00  2.73046322e+00
  2.73145801e+00  2.73766275e+00  2.74075647e+00  2.74156875e+00
  2.74679759e+00  2.74960611e+00  2.75204732e+00  2.75563264e+00
  2.76048683e+00  2.76494572e+00  2.76652692e+00  2.77565945e+00
  2.78060433e+00  2.78462353e+00  2.79203275e+00  2.79223851e+00
  2.79680740e+00  2.79915157e+00  2.80304585e+00  2.80437115e+00
  2.80536118e+00  2.81738675e+00  2.82418404e+00  2.82984847e+00
  2.83422371e+00  2.84776113e+00  2.85233875e+00  2.85634751e+00
  2.85882142e+00  2.86556434e+00  2.87003061e+00  2.87290283e+00
  2.88123307e+00  2.88429595e+00  2.88736695e+00  2.89236075e+00
  2.89860464e+00  2.90110304e+00  2.90613818e+00  2.90860349e+00
  2.91044402e+00  2.91845519e+00  2.92007460e+00  2.92487932e+00
  2.92976364e+00  2.93172865e+00  2.93652861e+00  2.94098289e+00
  2.94519478e+00  2.95022341e+00  2.95306919e+00  2.96469389e+00
  2.96864451e+00  2.97209022e+00  2.97438936e+00  2.98524828e+00
  2.99288779e+00  2.99351575e+00  3.00042214e+00  3.00732128e+00
  3.01495366e+00  3.01815407e+00  3.02548831e+00  3.02757820e+00
  3.03506069e+00  3.03659776e+00  3.04104374e+00  3.04842031e+00
  3.05907222e+00  3.06204581e+00  3.06344039e+00  3.06659586e+00
  3.07602284e+00  3.07933778e+00  3.08538491e+00  3.09267554e+00
  3.09367641e+00  3.09924660e+00  3.10398856e+00  3.11290552e+00
  3.12115071e+00  3.12525789e+00  3.13192115e+00  3.13906216e+00
  3.14581832e+00  3.15216789e+00  3.16364027e+00  3.16437965e+00
  3.17206468e+00  3.17327253e+00  3.17886502e+00  3.18361686e+00
  3.18820523e+00  3.19192729e+00  3.20225242e+00  3.20380621e+00
  3.21091655e+00  3.21367800e+00  3.21560938e+00  3.21822954e+00
  3.21962215e+00  3.22673297e+00  3.22817769e+00  3.22992011e+00
  3.23258403e+00  3.23901759e+00  3.24099698e+00  3.24571921e+00
  3.24796426e+00  3.25371867e+00  3.25555507e+00  3.26328466e+00
  3.26578494e+00  3.27339856e+00  3.27470438e+00  3.28108200e+00
  3.28816387e+00  3.29221686e+00  3.29347832e+00  3.29574932e+00
  3.30208802e+00  3.30766194e+00  3.30886527e+00  3.31451522e+00
  3.32108762e+00  3.32290079e+00  3.33123593e+00  3.33563320e+00
  3.33871312e+00  3.34526493e+00  3.35323019e+00  3.35529402e+00
  3.35910173e+00  3.36393898e+00  3.36814222e+00  3.37400518e+00
  3.37688017e+00  3.38235697e+00  3.38524141e+00  3.38719260e+00
  3.39250176e+00  3.39615946e+00  3.40011739e+00  3.40393602e+00
  3.40909597e+00  3.41031550e+00  3.41940583e+00  3.42175691e+00
  3.42715486e+00  3.42918207e+00  3.43720947e+00  3.43898250e+00
  3.44794241e+00  3.45435045e+00  3.45507735e+00  3.46403054e+00
  3.46582501e+00  3.47062467e+00  3.47452479e+00  3.47946246e+00
  3.48120325e+00  3.48459693e+00  3.48990880e+00  3.49790963e+00
  3.50237666e+00  3.50298370e+00  3.50810917e+00  3.50834160e+00
  3.51891083e+00  3.52147254e+00  3.52463370e+00  3.53332035e+00
  3.53762413e+00  3.54434703e+00  3.55384178e+00  3.55558212e+00
  3.55631120e+00  3.55874142e+00  3.56538462e+00  3.57164259e+00
  3.57701169e+00  3.58190064e+00  3.58738903e+00  3.58814561e+00
  3.59126855e+00  3.59515712e+00  3.59762719e+00  3.60216540e+00
  3.60930031e+00  3.61073388e+00  3.61411617e+00  3.61675226e+00
  3.62340466e+00  3.62717452e+00  3.64249661e+00  3.64406305e+00
  3.64681827e+00  3.66066237e+00  3.66603996e+00  3.67466458e+00
  3.67521131e+00  3.68546894e+00  3.69577778e+00  3.70324622e+00
  3.70984444e+00  3.71122374e+00  3.71722800e+00  3.72499620e+00
  3.74182303e+00  3.74822256e+00  3.75522918e+00  3.76642568e+00
  3.77466184e+00  3.78518679e+00  3.79509400e+00  3.79944109e+00
  3.81542249e+00  3.82027899e+00  3.82603397e+00  3.83937173e+00
  3.84616863e+00  3.84741681e+00  3.85078536e+00  3.86377323e+00
  3.86755285e+00  3.87797934e+00  3.88827845e+00  3.89457599e+00
  3.89827367e+00  3.91290758e+00  3.91855382e+00  3.93089477e+00
  3.93471847e+00  3.95000354e+00  3.95516800e+00  3.96695578e+00
  3.97043139e+00  3.98028193e+00  3.98588171e+00  3.99920789e+00
  4.00582580e+00  4.01257944e+00  4.01552098e+00  4.02357632e+00
  4.03790018e+00  4.04110164e+00  4.04784691e+00  4.05423898e+00
  4.06194330e+00  4.07088005e+00  4.07736885e+00  4.08603060e+00
  4.09489801e+00  4.09670362e+00  4.10402102e+00  4.10661566e+00
  4.11695799e+00  4.12499337e+00  4.13338636e+00  4.13609732e+00
  4.14971486e+00  4.17026579e+00  4.18060881e+00  4.18662743e+00
  4.19563807e+00  4.20849493e+00  4.21764796e+00  4.22111755e+00
  4.23656887e+00  4.23940567e+00  4.24865754e+00  4.25392013e+00
  4.25697758e+00  4.26093224e+00  4.26606993e+00  4.27280994e+00
  4.27906835e+00  4.28474711e+00  4.28932656e+00  4.29173973e+00
  4.29636409e+00  4.30344940e+00  4.30511548e+00  4.31399937e+00
  4.31967054e+00  4.32119137e+00  4.32945403e+00  4.33445728e+00
  4.34556641e+00  4.34903754e+00  4.36219219e+00  4.36437166e+00
  4.37502776e+00  4.37819918e+00  4.38420884e+00  4.39349822e+00
  4.40482543e+00  4.41424105e+00  4.42096008e+00  4.44088682e+00
  4.44624160e+00  4.45989008e+00  4.46973835e+00  4.48712264e+00
  4.50006531e+00  4.51883642e+00  4.52151887e+00  4.53835576e+00
  4.54363838e+00  4.56136595e+00  4.58365821e+00  4.59212784e+00
  4.59670234e+00  4.60647696e+00  4.62911475e+00  4.64257531e+00
  4.66427030e+00  4.67053266e+00  4.68287208e+00  4.68690533e+00
  4.70219866e+00  4.71115407e+00  4.73488113e+00  4.74352859e+00
  4.75267341e+00  4.76492766e+00  4.77135546e+00  4.77836170e+00
  4.79570500e+00  4.80469419e+00  4.81205854e+00  4.82614521e+00
  4.83680331e+00  4.84986974e+00  4.87667331e+00  4.87937476e+00
  4.88555295e+00  4.90538255e+00  4.91704859e+00  4.92400347e+00
  4.93429807e+00  4.94375817e+00  4.95903668e+00  4.96292495e+00
  4.96729293e+00  4.97817718e+00  4.99437124e+00  4.99503541e+00
  5.02162635e+00  5.02881437e+00  5.03475627e+00  5.05039237e+00
  5.05373241e+00  5.06534596e+00  5.07436277e+00  5.09062551e+00
  5.12316956e+00  5.13430324e+00  5.15212467e+00  5.17890666e+00
  5.18439929e+00  5.19030898e+00  5.22215692e+00  5.22415522e+00
  5.23034251e+00  5.24628156e+00  5.25939160e+00  5.26538682e+00
  5.26643753e+00  5.27778948e+00  5.28240770e+00  5.28617197e+00
  5.30920723e+00  5.34955403e+00  5.35118087e+00  5.35651677e+00
  5.37204628e+00  5.37368158e+00  5.40291430e+00  5.40390946e+00
  5.41097352e+00  5.42638797e+00  5.43462117e+00  5.47219779e+00
  5.47692087e+00  5.48338376e+00  5.49082524e+00  5.50110808e+00
  5.52942362e+00  5.54566710e+00  5.55765826e+00  5.57044738e+00
  5.57438951e+00  5.57497792e+00  5.58322500e+00  5.60215881e+00
  5.62226060e+00  5.62991373e+00  5.66718100e+00  5.69347862e+00
  5.71768584e+00  5.72695127e+00  5.75737154e+00  5.76331009e+00
  5.79422926e+00  5.80629454e+00  5.81341145e+00  5.85005923e+00
  5.87292471e+00  5.88621561e+00  5.91381982e+00  5.99506793e+00
  6.03383647e+00  6.07311675e+00  6.08898559e+00  6.14939273e+00
  6.15684907e+00  6.27079939e+00  6.29942722e+00  6.32334045e+00
  6.37368116e+00  6.37940986e+00  6.44950490e+00  6.47456409e+00
  6.48153262e+00  6.50014071e+00  6.52244271e+00  6.53099014e+00
  6.57782486e+00  6.69533822e+00  6.79452928e+00  6.81397154e+00
  6.88146078e+00  6.90353940e+00  6.96247696e+00  6.98408575e+00
  7.07134096e+00  7.09133159e+00  7.22827959e+00  7.26721172e+00
  7.34993606e+00  7.36447134e+00  2.21717630e+01  2.21965178e+01
  2.22601936e+01  2.25493555e+01  2.26031658e+01  2.26070072e+01
  2.26720914e+01  2.26884313e+01  2.26974329e+01  2.27077993e+01
  2.27283834e+01  2.27461655e+01  2.27496274e+01  2.27756547e+01
  2.27880504e+01  2.28039486e+01  2.29211135e+01  2.29357390e+01
  2.30068277e+01  2.31447659e+01  2.31633482e+01  2.32234061e+01
  2.33186873e+01  2.33818422e+01  2.35516045e+01  2.35842584e+01
  3.25577680e+01  3.27086323e+01  3.31673863e+01  4.39451186e+01
  4.39583509e+01  4.41013843e+01]
nelec by numeric integration = 222.0001229021934
    CPU time for vxc    156.21 sec, wall time      9.05 sec
    CPU time for df vj and vk    576.42 sec, wall time     38.98 sec
    CPU time for df vj and vk    448.80 sec, wall time     23.73 sec
E1 = -7592.26042742083  Ecoul = 3526.674327585544  Exc = -195.18828007156327
Extra cycle  E= -1393.47518712416  delta_E= -4.55e-12  |g|= 6.6e-07  |ddm|= 2.3e-06
    CPU time for scf_cycle   6793.65 sec, wall time    451.01 sec
    CPU time for SCF   6793.66 sec, wall time    451.01 sec
converged SCF energy = -1393.47518712416
SCF Done after 451.03 seconds
after SCF memory used: 24.57 GB
Converting <class 'pyscf.df.df_jk.density_fit.<locals>.DFHF'> to RHF
Converting <class 'pyscf.df.df_jk.density_fit.<locals>.DFHF'> to RHF
hdiag shape (111777,)
n_occ =  111
n_vir =  1007
max_vir =  277
A_size =  111777
A_reduced_size = 30747
a_x = 0.56
beta = 8.0
alpha = 4.58
Q-Gamma tensors building time = 0.97
after Q matrix memory used: 24.76 GB
stapol
|-------- In-house Developed stapol Starts ---------|
Residual conv = 1e-05


initial guess sTDDFT
preconditioner sTDDFT
Static polarizability procedure aborted
sTDDFT Stapol precond Converged
after 5 steps 0.6632 s
conv threhsold = 1.00e-02
final subspace: 13
max_norm =  8.85e-03
initial_cost 0.0076s  1.15%
MVcost     0.5753s  86.76%
GScost     0.0311s  4.69%
subgencost 0.0220s  3.32%
subcost    0.0006s  0.08%
alpha tensor of initial guess:
[[535.10746607 -40.25983292  20.00749524]
 [-40.25983292 393.05926147 -12.10814391]
 [ 20.00749524 -12.10814391 356.24779513]]
new_m = 3

Iteration 0
    CPU time for df vj and vk   1706.06 sec, wall time    108.33 sec
    CPU time for df vj and vk   1322.02 sec, wall time     71.13 sec
max_norm = 5.53e-01
Static polarizability procedure aborted
sTDDFT Stapol precond Converged
after 4 steps 0.6391 s
conv threhsold = 1.00e-02
final subspace: 12
max_norm =  8.02e-03
initial_cost 0.0166s  2.60%
MVcost     0.5549s  86.82%
GScost     0.0267s  4.18%
subgencost 0.0159s  2.49%
subcost    0.0004s  0.06%

Iteration 1
    CPU time for df vj and vk   1688.53 sec, wall time    104.90 sec
    CPU time for df vj and vk   1325.87 sec, wall time     71.45 sec
max_norm = 1.95e-01
Static polarizability procedure aborted
sTDDFT Stapol precond Converged
after 5 steps 0.7364 s
conv threhsold = 1.00e-02
final subspace: 14
max_norm =  5.49e-03
initial_cost 0.0049s  0.66%
MVcost     0.6474s  87.91%
GScost     0.0364s  4.94%
subgencost 0.0251s  3.41%
subcost    0.0005s  0.07%

Iteration 2
    CPU time for df vj and vk   1694.73 sec, wall time    106.52 sec
    CPU time for df vj and vk   1330.67 sec, wall time     72.14 sec
max_norm = 7.86e-02
Static polarizability procedure aborted
sTDDFT Stapol precond Converged
after 5 steps 0.8007 s
conv threhsold = 1.00e-02
final subspace: 15
max_norm =  5.23e-03
initial_cost 0.0083s  1.04%
MVcost     0.6972s  87.07%
GScost     0.0407s  5.08%
subgencost 0.0243s  3.03%
subcost    0.0006s  0.07%

Iteration 3
    CPU time for df vj and vk   1702.73 sec, wall time    108.43 sec
    CPU time for df vj and vk   1318.96 sec, wall time     70.83 sec
max_norm = 2.44e-02
Static polarizability procedure aborted
sTDDFT Stapol precond Converged
after 5 steps 0.7714 s
conv threhsold = 1.00e-02
final subspace: 15
max_norm =  5.29e-03
initial_cost 0.0053s  0.69%
MVcost     0.6710s  86.99%
GScost     0.0407s  5.28%
subgencost 0.0237s  3.08%
subcost    0.0005s  0.06%

Iteration 4
    CPU time for df vj and vk   1722.95 sec, wall time    109.87 sec
    CPU time for df vj and vk   1320.96 sec, wall time     71.36 sec
max_norm = 9.52e-03
Static polarizability procedure aborted
sTDDFT Stapol precond Converged
after 5 steps 0.7647 s
conv threhsold = 1.00e-02
final subspace: 15
max_norm =  6.22e-03
initial_cost 0.0047s  0.61%
MVcost     0.6687s  87.45%
GScost     0.0393s  5.13%
subgencost 0.0233s  3.05%
subcost    0.0006s  0.07%

Iteration 5
    CPU time for df vj and vk   1697.82 sec, wall time    104.74 sec
    CPU time for df vj and vk   1323.15 sec, wall time     72.52 sec
max_norm = 3.48e-03
Static polarizability procedure aborted
sTDDFT Stapol precond Converged
after 5 steps 0.7821 s
conv threhsold = 1.00e-02
final subspace: 15
max_norm =  4.87e-03
initial_cost 0.0049s  0.63%
MVcost     0.6881s  87.98%
GScost     0.0407s  5.20%
subgencost 0.0261s  3.33%
subcost    0.0005s  0.06%

Iteration 6
    CPU time for df vj and vk   1699.23 sec, wall time    105.53 sec
    CPU time for df vj and vk   1332.22 sec, wall time     72.66 sec
max_norm = 1.27e-03
Static polarizability procedure aborted
sTDDFT Stapol precond Converged
after 5 steps 0.7691 s
conv threhsold = 1.00e-02
final subspace: 15
max_norm =  5.89e-03
initial_cost 0.0048s  0.62%
MVcost     0.6745s  87.70%
GScost     0.0404s  5.25%
subgencost 0.0238s  3.10%
subcost    0.0005s  0.06%

Iteration 7
    CPU time for df vj and vk   1698.80 sec, wall time    107.03 sec
    CPU time for df vj and vk   1325.83 sec, wall time     71.09 sec
max_norm = 4.15e-04
Static polarizability procedure aborted
sTDDFT Stapol precond Converged
after 5 steps 0.7612 s
conv threhsold = 1.00e-02
final subspace: 15
max_norm =  5.78e-03
initial_cost 0.0045s  0.59%
MVcost     0.6725s  88.36%
GScost     0.0392s  5.14%
subgencost 0.0232s  3.05%
subcost    0.0006s  0.07%

Iteration 8
    CPU time for df vj and vk   1693.08 sec, wall time    105.09 sec
    CPU time for df vj and vk   1319.85 sec, wall time     71.12 sec
max_norm = 1.42e-04
Static polarizability procedure aborted
sTDDFT Stapol precond Converged
after 5 steps 0.7687 s
conv threhsold = 1.00e-02
final subspace: 15
max_norm =  4.29e-03
initial_cost 0.0048s  0.62%
MVcost     0.6771s  88.08%
GScost     0.0410s  5.34%
subgencost 0.0245s  3.19%
subcost    0.0005s  0.07%

Iteration 9
    CPU time for df vj and vk   1703.52 sec, wall time    107.64 sec
    CPU time for df vj and vk   1326.07 sec, wall time     70.72 sec
max_norm = 4.14e-05
Static polarizability procedure aborted
sTDDFT Stapol precond Converged
after 5 steps 0.7691 s
conv threhsold = 1.00e-02
final subspace: 15
max_norm =  5.48e-03
initial_cost 0.0049s  0.64%
MVcost     0.6755s  87.82%
GScost     0.0409s  5.32%
subgencost 0.0260s  3.38%
subcost    0.0005s  0.06%

Iteration 10
    CPU time for df vj and vk   1713.25 sec, wall time    107.10 sec
    CPU time for df vj and vk   1328.77 sec, wall time     73.24 sec
max_norm = 1.27e-05
Static polarizability procedure aborted
sTDDFT Stapol precond Converged
after 4 steps 0.6070 s
conv threhsold = 1.00e-02
final subspace: 12
max_norm =  9.52e-03
initial_cost 0.0047s  0.77%
MVcost     0.5433s  89.51%
GScost     0.0261s  4.31%
subgencost 0.0159s  2.62%
subcost    0.0004s  0.07%

Iteration 11
    CPU time for df vj and vk   1708.24 sec, wall time    105.05 sec
    CPU time for df vj and vk   1319.61 sec, wall time     72.30 sec
max_norm = 3.74e-06
static polarizability precodure aborted

Static polarizability Converged
after 12 steps; 2488.7397 s
final subspace (36, 36)
max_norm =  3.74e-06
initial_cost 0.7310s  0.03%
MVcost     2477.0723s  99.53%
Pcost      8.2997s  0.33%
Static polarizability tensor alpha
[[499.25299782 -47.12422947  22.34137709]
 [-47.12422947 329.74173733 -21.10193358]
 [ 22.34137709 -21.10193358 271.61424946]]


initial guess Adiag
preconditioner Adiag
alpha tensor of initial guess:
[[437.31338161 -29.80229461  36.29371665]
 [-29.80229461 350.75415346 -35.67301079]
 [ 36.29371665 -35.67301079 344.68730039]]
new_m = 3

Iteration 0
    CPU time for df vj and vk   1700.55 sec, wall time    106.60 sec
    CPU time for df vj and vk   1314.22 sec, wall time     72.21 sec
max_norm = 6.33e-01

Iteration 1
    CPU time for df vj and vk   1696.07 sec, wall time    105.83 sec
    CPU time for df vj and vk   1324.36 sec, wall time     71.87 sec
max_norm = 2.33e-01

Iteration 2
    CPU time for df vj and vk   1702.95 sec, wall time    104.69 sec
    CPU time for df vj and vk   1309.85 sec, wall time     71.03 sec
max_norm = 1.19e-01

Iteration 3
    CPU time for df vj and vk   1706.99 sec, wall time    104.95 sec
    CPU time for df vj and vk   1321.76 sec, wall time     72.19 sec
max_norm = 5.66e-02

Iteration 4
    CPU time for df vj and vk   1686.95 sec, wall time    108.63 sec
    CPU time for df vj and vk   1327.59 sec, wall time     72.54 sec
max_norm = 2.78e-02

Iteration 5
    CPU time for df vj and vk   1702.77 sec, wall time    107.84 sec
    CPU time for df vj and vk   1317.85 sec, wall time     70.74 sec
max_norm = 1.14e-02

Iteration 6
    CPU time for df vj and vk   1705.44 sec, wall time    106.22 sec
    CPU time for df vj and vk   1321.81 sec, wall time     71.38 sec
max_norm = 4.73e-03

Iteration 7
    CPU time for df vj and vk   1688.89 sec, wall time    104.77 sec
    CPU time for df vj and vk   1327.17 sec, wall time     71.68 sec
max_norm = 1.91e-03

Iteration 8
    CPU time for df vj and vk   1698.35 sec, wall time    103.88 sec
    CPU time for df vj and vk   1319.00 sec, wall time     70.23 sec
max_norm = 6.42e-04

Iteration 9
    CPU time for df vj and vk   1703.48 sec, wall time    106.40 sec
    CPU time for df vj and vk   1320.52 sec, wall time     73.03 sec
max_norm = 2.65e-04

Iteration 10
    CPU time for df vj and vk   1703.46 sec, wall time    106.58 sec
    CPU time for df vj and vk   1324.18 sec, wall time     73.66 sec
max_norm = 9.78e-05

Iteration 11
    CPU time for df vj and vk   1688.64 sec, wall time    104.21 sec
    CPU time for df vj and vk   1319.37 sec, wall time     70.50 sec
max_norm = 4.07e-05

Iteration 12
    CPU time for df vj and vk   1692.99 sec, wall time    102.33 sec
    CPU time for df vj and vk   1329.92 sec, wall time     71.17 sec
max_norm = 1.59e-05

Iteration 13
    CPU time for df vj and vk   1134.53 sec, wall time     69.71 sec
    CPU time for df vj and vk    888.62 sec, wall time     47.61 sec
max_norm = 5.66e-06
static polarizability precodure aborted

Static polarizability Converged
after 14 steps; 2812.0292 s
final subspace (41, 41)
max_norm =  5.66e-06
initial_cost 0.0578s  0.00%
MVcost     2808.5349s  99.88%
Pcost      0.0342s  0.00%
Static polarizability tensor alpha
[[499.25299782 -47.12422947  22.34137709]
 [-47.12422947 329.74173733 -21.10193358]
 [ 22.34137709 -21.10193358 271.61424945]]
xyzfile = 53_Coelenterazine.xyz
checkfile = True
method = RKS
functional = wb97x
basis_set = def2-tzvp
density_fit = True
grid_level = 3
nstates = 4
pytd = False
TDA = False
TDDFT = False
dynpol = False
dynpol_omega = []
stapol = True
sTDA = False
sTDDFT = False
Truncate_test = False
truncate_virtual = 40.0
ip_options = [0, 1]
conv_tolerance = 1e-05
initial_TOL = 0.01
precond_TOL = 0.01
extrainitial = 8
max = 30
eigensolver_tol = 1e-05
memory = 60000
verbose = 5
beta = []
alpha = []
|-------- In-house Developed stapol Ends ----------|
