curpath /scratch/pbsjobs/job.16252230.hpc
lib.num_threads() =  20
at beginning memory used: 0.05 GB
mol.max_memory 160000


System: uname_result(system='Linux', node='compt319', release='3.10.0-1127.el7.x86_64', version='#1 SMP Tue Feb 18 16:39:12 EST 2020', machine='x86_64', processor='x86_64')  Threads 20
Python 3.7.0 (default, Aug 23 2018, 14:24:33) 
[GCC 6.3.0]
numpy 1.18.1  scipy 1.4.1
Date: Mon Sep  6 02:24:25 2021
PySCF version 1.7.4
PySCF path  /home/zzz6/.local/lib/python3.7/site-packages/pyscf

[CONFIG] conf_file None
[INPUT] verbose = 5
[INPUT] max_memory = 160000 
[INPUT] num. atoms = 99
[INPUT] num. electrons = 306
[INPUT] charge = 0
[INPUT] spin (= nelec alpha-beta = 2S) = 0
[INPUT] symmetry False subgroup None
[INPUT] Mole.unit = angstrom
[INPUT]  1 O    -15.853325647192  -2.513110726611   0.486804451917 AA  -29.958443636737  -4.749090994002   0.919927090342 Bohr
[INPUT]  2 C     13.229870973341  -1.479924819805   0.701062589411 AA   25.000832802947  -2.796652594378   1.324816290165 Bohr
[INPUT]  3 C     14.649169931334  -0.864901660676   0.738182734535 AA   27.682919122434  -1.634427263359   1.394963198153 Bohr
[INPUT]  4 C     14.634717411663   0.612377578686   1.124929069746 AA   27.655607818446   1.157225908541   2.125807851382 Bohr
[INPUT]  5 C     12.225763064377  -0.531441537190   0.002888078564 AA   23.103343855496  -1.004278956506   0.005457677512 Bohr
[INPUT]  6 C     13.865448247569   1.396662598766   0.062782369477 AA   26.201899782237   2.639309800091   0.118641483764 Bohr
[INPUT]  7 C     12.550040842881   0.757332002463  -0.331684094349 AA   23.716140045151   1.431150070024  -0.626792098193 Bohr
[INPUT]  8 C     12.733463871550  -1.762011541262   2.139975299929 AA   24.062759334273  -3.329719241309   4.043967230200 Bohr
[INPUT]  9 C     13.332925996647  -2.825067138102  -0.058442510541 AA   25.195578572757  -5.338603174522  -0.110440338954 Bohr
[INPUT] 10 C     10.906671757014  -1.115679796527  -0.262109682090 AA   20.610622551285  -2.108329258147  -0.495315513748 Bohr
[INPUT] 11 C     11.672230520618   1.664652389771  -1.162004325327 AA   22.057318946758   3.145737109270  -2.195869930428 Bohr
[INPUT] 12 C      9.698108730175  -0.491083766356  -0.110831758790 AA   18.326769426284  -0.928013822633  -0.209441670017 Bohr
[INPUT] 13 C      8.401243375247  -1.081006136908  -0.362928774276 AA   15.876049085033  -2.042805537731  -0.685835986106 Bohr
[INPUT] 14 C    -15.864482597194  -1.171704276158   1.017267294060 AA  -29.979527216626  -2.214200180921   1.922356581251 Bohr
[INPUT] 15 C      8.334726284921  -2.503059879436  -0.865346010339 AA   15.750350001714  -4.730097645521  -1.635266962525 Bohr
[INPUT] 16 C    -14.945566515032  -0.363583055951   0.078711359722 AA  -28.243027489881  -0.687072399280   0.148742912766 Bohr
[INPUT] 17 C      7.273600489902  -0.310234438127  -0.132808509186 AA   13.745112865417  -0.586258122469  -0.250971709373 Bohr
[INPUT] 18 C    -13.505718848774  -0.882385928520  -0.015094213485 AA  -25.522109739560  -1.667467741072  -0.028523929553 Bohr
[INPUT] 19 C    -12.691385100754  -0.154472022874  -1.107335651943 AA  -23.983241981810  -0.291909817139  -2.092561110139 Bohr
[INPUT] 20 C    -15.351967546227  -1.184338035966   2.467915589908 AA  -29.011014135580  -2.238074526882   4.663684563470 Bohr
[INPUT] 21 C    -17.296777645249  -0.613450767036   0.956560607872 AA  -32.686172587021  -1.159253940602   1.807637570426 Bohr
[INPUT] 22 C    -11.260357145442  -0.629171358180  -1.215754977463 AA  -21.278991069674  -1.188961552381  -2.297443941982 Bohr
[INPUT] 23 C      5.907771482351  -0.680528218307  -0.318057094925 AA   11.164070108159  -1.286011952639  -0.601040801382 Bohr
[INPUT] 24 C    -11.066594452968  -2.039649882225  -1.709899829589 AA  -20.912832647741  -3.854379667407  -3.231242378363 Bohr
[INPUT] 25 C    -10.233381030699   0.200936105903  -0.857461921405 AA  -19.338287476341   0.379714208694  -1.620368193699 Bohr
[INPUT] 26 C      4.850973062684   0.171117850118  -0.061833943670 AA    9.167010526115   0.323365871748  -0.116849218739 Bohr
[INPUT] 27 C     -8.823424746317  -0.091552900859  -0.876372103039 AA  -16.673856251250  -0.173009908533  -1.656103257954 Bohr
[INPUT] 28 C      3.457838147249  -0.127338749524  -0.227820652785 AA    6.534367081374  -0.240635361645  -0.430518639284 Bohr
[INPUT] 29 C     -7.857661716861   0.810051534719  -0.497566547820 AA  -14.848828624346   1.530775547402  -0.940264504125 Bohr
[INPUT] 30 C      3.056638710179  -1.495746190187  -0.727824642854 AA    5.776210023983  -2.826550651315  -1.375389241703 Bohr
[INPUT] 31 C      2.527626766119   0.862624472168   0.078882648971 AA    4.776522333086   1.630124000745   0.149066602536 Bohr
[INPUT] 32 C     -6.434732668704   0.584895893192  -0.493774692639 AA  -12.159882428642   1.105293049517  -0.933098936330 Bohr
[INPUT] 33 C      1.113168042848   0.791133915426  -0.013349688321 AA    2.103582731600   1.495026428009  -0.025227254775 Bohr
[INPUT] 34 C     -5.910380534788  -0.759173483883  -0.941310829636 AA  -11.169000502710  -1.434629965571  -1.778819666100 Bohr
[INPUT] 35 C     -5.602135341060   1.616700252479  -0.079139890041 AA  -10.586501507351   3.055120702700  -0.149552717707 Bohr
[INPUT] 36 C      0.269190790871   1.842685898875   0.315896322202 AA    0.508696870001   3.482171682472   0.596957532719 Bohr
[INPUT] 37 C     -4.181532802968   1.613259741350  -0.001327681659 AA   -7.901951778494   3.048619078938  -0.002508954715 Bohr
[INPUT] 38 C     -3.447186049819   2.704615835799   0.426484700391 AA   -6.514237534579   5.110983201822   0.805939280056 Bohr
[INPUT] 39 C     -1.145088074012   1.790331138513   0.225961104252 AA   -2.163902848389   3.383235524070   0.427004601841 Bohr
[INPUT] 40 C     -2.018706027430   2.826078399010   0.545879756556 AA   -3.814801517851   5.340514180679   1.031563236835 Bohr
[INPUT] 41 C     -1.476569197299   4.153383921630   1.042798210486 AA   -2.790311386864   7.848758102052   1.970603021005 Bohr
[INPUT] 42 H     15.107961469245  -0.964404583690  -0.265203707678 AA   28.549909477354  -1.822460536449  -0.501162374731 Bohr
[INPUT] 43 H     15.274325444576  -1.455860987373   1.433066194806 AA   28.864291827724  -2.751178541574   2.708102626557 Bohr
[INPUT] 44 H     15.662908344329   1.003641143074   1.224904419176 AA   29.598607084948   1.896606887756   2.314733881012 Bohr
[INPUT] 45 H     14.147747915799   0.740614189896   2.109788247694 AA   26.735368840247   1.399557982869   3.986921968968 Bohr
[INPUT] 46 H     14.490456701870   1.516531181445  -0.848409926948 AA   27.382994586404   2.865828592294  -1.603262403294 Bohr
[INPUT] 47 H     13.662617811476   2.429991156410   0.408727603552 AA   25.818605808295   4.592017770731   0.772383230263 Bohr
[INPUT] 48 H     13.395600347430  -2.489784239273   2.644185969014 AA   25.314015930771  -4.705010321484   4.996787303853 Bohr
[INPUT] 49 H     11.710021876905  -2.175465603560   2.123856978556 AA   22.128734260016  -4.111034184140   4.013508017217 Bohr
[INPUT] 50 H     12.708386565135  -0.838144965371   2.743163903380 AA   24.015370093207  -1.583864437235   5.183828492180 Bohr
[INPUT] 51 H     14.145726573673  -3.432568425575   0.378686236174 AA   26.731549057224  -6.486614228167   0.715613273511 Bohr
[INPUT] 52 H     13.563015227923  -2.660248983242  -1.125822026861 AA   25.630384204080  -5.027142001481  -2.127495295771 Bohr
[INPUT] 53 H     12.406382330983  -3.419739661775   0.010730425670 AA   23.444664802201  -6.462371378067   0.020277565717 Bohr
[INPUT] 54 H     10.895026218280  -2.175565264148  -0.544086438943 AA   20.588615672506  -4.111222515357  -1.028174357693 Bohr
[INPUT] 55 H     11.163183260802   2.424318736820  -0.536306404592 AA   21.095359041244   4.581298451241  -1.013472223529 Bohr
[INPUT] 56 H     10.899746324894   1.113756693081  -1.720180238807 AA   20.597535381285   2.104695119324  -3.250669536235 Bohr
[INPUT] 57 H     12.298839404293   2.226477881762  -1.881101658814 AA   23.241438124124   4.207433418932  -3.554766947623 Bohr
[INPUT] 58 H      9.683397881685   0.542154678821   0.258031073603 AA   18.298969951579   1.024523860122   0.487608060737 Bohr
[INPUT] 59 H    -15.402696397073  -0.391775250514  -0.928568626383 AA  -29.106877770293  -0.740347925854  -1.754740391727 Bohr
[INPUT] 60 H    -14.951932191360   0.694584928923   0.402208332082 AA  -28.255056874738   1.312575285915   0.760063592652 Bohr
[INPUT] 61 H      8.814912165535  -3.194262930994  -0.147682559536 AA   16.657769804957  -6.036282109430  -0.279079590898 Bohr
[INPUT] 62 H      7.301218727104  -2.845013179981  -1.022344818305 AA   13.797303769773  -5.376295730942  -1.931951711465 Bohr
[INPUT] 63 H      8.878293320116  -2.607029994736  -1.822390800417 AA   16.777542828575  -4.926572688578  -3.443819504714 Bohr
[INPUT] 64 H    -12.984857828887  -0.757825174077   0.952119550549 AA  -24.537825063010  -1.432082029307   1.799245188381 Bohr
[INPUT] 65 H    -13.543648490756  -1.965694283170  -0.222347142176 AA  -25.593786374907  -3.714623839814  -0.420175203292 Bohr
[INPUT] 66 H      7.447011131683   0.711846345577   0.233790289470 AA   14.072811485468   1.345194635913   0.441799617681 Bohr
[INPUT] 67 H    -12.703942949437   0.932578204934  -0.905947713136 AA  -24.006972876535   1.762317397063  -1.711993061003 Bohr
[INPUT] 68 H    -13.203735543521  -0.305129273325  -2.080252349973 AA  -24.951443998441  -0.576610759171  -3.931107211431 Bohr
[INPUT] 69 H    -15.284552988447  -0.161987305705   2.880296996993 AA  -28.883619084568  -0.306111643439   5.442972481724 Bohr
[INPUT] 70 H    -16.042318392936  -1.761235589995   3.111510351747 AA  -30.315588165723  -3.328252905928   5.879902398551 Bohr
[INPUT] 71 H    -14.356995982520  -1.654660390239   2.526551263470 AA  -27.130790378444  -3.126854966717   4.774489927633 Bohr
[INPUT] 72 H    -17.973649889727  -1.214562316335   1.592065689853 AA  -33.965275750403  -2.295190139090   3.008568126140 Bohr
[INPUT] 73 H    -17.338908603618   0.431291646829   1.312541704015 AA  -32.765788559703   0.815023092320   2.480344347659 Bohr
[INPUT] 74 H    -17.672677200564  -0.649570559301  -0.079881444352 AA  -33.396519796910  -1.227510455660  -0.150954052259 Bohr
[INPUT] 75 H      5.691253901755  -1.691047499818  -0.683874217489 AA   10.754911179679  -3.195616638287  -1.292334974705 Bohr
[INPUT] 76 H    -16.395073357706  -3.061036372297   1.082907139801 AA  -30.982198438219  -5.784520400973   2.046397912559 Bohr
[INPUT] 77 H    -11.520069996927  -2.768662807894  -1.011625313526 AA  -21.769777230012  -5.232014438188  -1.911694783242 Bohr
[INPUT] 78 H    -11.578464673328  -2.180318056588  -2.681333336857 AA  -21.880127175541  -4.120203991395  -5.066985655326 Bohr
[INPUT] 79 H    -10.007481067071  -2.309446224927  -1.838659733563 AA  -18.911398413534  -4.364220864523  -3.474563332699 Bohr
[INPUT] 80 H    -10.504603346082   1.210576087200  -0.515600306864 AA  -19.850823371284   2.287657257756  -0.974343369715 Bohr
[INPUT] 81 H      5.088824337365   1.180057197481   0.304256943872 AA    9.616484293641   2.229984914560   0.574962295415 Bohr
[INPUT] 82 H     -8.512437300498  -1.088229191421  -1.211097094377 AA  -16.086175150473  -2.056455132543  -2.288641818628 Bohr
[INPUT] 83 H     -8.188786629407   1.803659950828  -0.163112179300 AA  -15.474564022079   3.408423328911  -0.308237346458 Bohr
[INPUT] 84 H      3.426556860509  -2.285366380406  -0.048141781144 AA    6.475254016611  -4.318716553257  -0.090974781511 Bohr
[INPUT] 85 H      3.496507380302  -1.694384046259  -1.722527228252 AA    6.607441341290  -3.201921797262  -3.255104703502 Bohr
[INPUT] 86 H      1.965894655195  -1.607701685790  -0.812822939689 AA    3.715002488065  -3.038115876145  -1.536012743775 Bohr
[INPUT] 87 H      2.936772181197   1.819163375798   0.434929178034 AA    5.549695112705   3.437720556097   0.821897030066 Bohr
[INPUT] 88 H      0.651374423076  -0.141092309282  -0.364529970955 AA    1.230919264160  -0.266625822826  -0.688861809300 Bohr
[INPUT] 89 H     -6.219123824681  -0.973550628083  -1.981145674101 AA  -11.752440763405  -1.839744055476  -3.743822736918 Bohr
[INPUT] 90 H     -4.813151333071  -0.818528740503  -0.895792438318 AA   -9.095537815590  -1.546795144636  -1.692802372877 Bohr
[INPUT] 91 H     -6.320380241813  -1.569235276255  -0.310312037288 AA  -11.943787660138  -2.965424897129  -0.586404763630 Bohr
[INPUT] 92 H     -6.096918629058   2.550417913370   0.224807102003 AA  -11.521506412679   4.819591359455   0.424823853642 Bohr
[INPUT] 93 H      0.735741539061   2.772657578343   0.666810185260 AA    1.390350007292   5.239563460268   1.260088627213 Bohr
[INPUT] 94 H     -3.650406019683   0.700465216370  -0.296925164254 AA   -6.898267620665   1.323687418723  -0.561107239931 Bohr
[INPUT] 95 H     -4.022724475868   3.596629985720   0.711987205612 AA   -7.601847533976   6.796645644409   1.345460822800 Bohr
[INPUT] 96 H     -1.572607838722   0.843926050949  -0.129877001253 AA   -2.971798116529   1.594789105680  -0.245431962248 Bohr
[INPUT] 97 H     -0.887782290540   4.028791946339   1.970097909507 AA   -1.677665387360   7.613313391434   3.722945487547 Bohr
[INPUT] 98 H     -2.294790660097   4.860122329293   1.255627479456 AA   -4.336525860793   9.184300134247   2.372792050650 Bohr
[INPUT] 99 H     -0.810000989547   4.623550544445   0.296551738972 AA   -1.530680030870   8.737244252085   0.560401568420 Bohr
[INPUT] ---------------- BASIS SET ---------------- 
[INPUT] l, kappa, [nprim/nctr], expnt,             c_1 c_2 ...
[INPUT] H
[INPUT] 0    0    [3    /1   ]  34.061341         0.0060251978
                                5.1235746         0.045021094
                                1.1646626         0.20189726
[INPUT] 0    0    [1    /1   ]  0.32723041           1
[INPUT] 0    0    [1    /1   ]  0.10307241           1
[INPUT] 1    0    [1    /1   ]  0.8                  1
[INPUT] O
[INPUT] 0    0    [6    /1   ]  27032.382631      0.00021726302465
                                4052.3871392      0.0016838662199
                                922.3272271       0.0087395616265
                                261.24070989      0.035239968808
                                85.354641351      0.11153519115
                                31.035035245      0.25588953961
[INPUT] 0    0    [2    /1   ]  12.260860728      0.39768730901
                                4.9987076005      0.2462784943
[INPUT] 0    0    [1    /1   ]  1.1703108158         1
[INPUT] 0    0    [1    /1   ]  0.46474740994        1
[INPUT] 0    0    [1    /1   ]  0.18504536357        1
[INPUT] 1    0    [4    /1   ]  63.274954801      0.0060685103418
                                14.627049379      0.041912575824
                                4.4501223456      0.16153841088
                                1.5275799647      0.35706951311
[INPUT] 1    0    [1    /1   ]  0.52935117943        1
[INPUT] 1    0    [1    /1   ]  0.1747842127         1
[INPUT] 2    0    [1    /1   ]  2.314                1
[INPUT] 2    0    [1    /1   ]  0.645                1
[INPUT] 3    0    [1    /1   ]  1.428                1
[INPUT] C
[INPUT] 0    0    [6    /1   ]  13575.349682      0.00022245814352
                                2035.233368       0.0017232738252
                                463.22562359      0.0089255715314
                                131.20019598      0.035727984502
                                42.853015891      0.11076259931
                                15.584185766      0.24295627626
[INPUT] 0    0    [2    /1   ]  6.2067138508      0.41440263448
                                2.5764896527      0.23744968655
[INPUT] 0    0    [1    /1   ]  0.57696339419        1
[INPUT] 0    0    [1    /1   ]  0.22972831358        1
[INPUT] 0    0    [1    /1   ]  0.095164440028       1
[INPUT] 1    0    [4    /1   ]  34.697232244      0.0053333657805
                                7.9582622826      0.035864109092
                                2.3780826883      0.14215873329
                                0.81433208183     0.34270471845
[INPUT] 1    0    [1    /1   ]  0.28887547253        1
[INPUT] 1    0    [1    /1   ]  0.10056823671        1
[INPUT] 2    0    [1    /1   ]  1.097                1
[INPUT] 2    0    [1    /1   ]  0.318                1
[INPUT] 3    0    [1    /1   ]  0.761                1

nuclear repulsion = 3675.37063388578
number of shells = 683
number of NR pGTOs = 2350
number of NR cGTOs = 1619
basis = def2-tzvp
ecp = {}
CPU time:         2.83
RKS
Density fitting turned on
Molecule built
Calculating SCF Energy...


******** <class 'pyscf.df.df_jk.density_fit.<locals>.DFHF'> ********
method = DFHF-RKS-RHF
initial guess = chkfile
damping factor = 0
level_shift factor = 0
DIIS = <class 'pyscf.scf.diis.CDIIS'>
diis_start_cycle = 1
diis_space = 8
SCF conv_tol = 1e-10
SCF conv_tol_grad = None
SCF max_cycles = 50
direct_scf = True
direct_scf_tol = 1e-13
chkfile to save SCF result = 99_Carotenoid_B_pbe0.chk
max_memory 160000 MB (current use 56 MB)
XC functionals = pbe0
small_rho_cutoff = 1e-07
radial grids: 
    Treutler-Ahlrichs [JCP 102, 346 (1995); DOI:10.1063/1.469408] (M4) radial grids
    
becke partition: Becke, JCP 88, 2547 (1988); DOI:10.1063/1.454033
pruning grids: <function nwchem_prune at 0x7f1dae230e18>
grids dens level: 3
symmetrized grids: False
atomic radii adjust function: <function treutler_atomic_radii_adjust at 0x7f1dae230d90>
Set gradient conv threshold to 1e-05
atom O rad-grids = 75, ang-grids = [ 50  50  50  50  50  50  50  50  50  50  50  50  50  50  50  50  50  50
  50  50  50  50  86  86  86  86  86  86  86  86  86 266 266 266 266 266
 266 266 302 302 302 302 302 302 302 302 302 302 302 302 302 302 302 302
 302 302 302 266 266 266 266 266 266 266 266 266 266 266 266 266 266 266
 266 266 266]
atom C rad-grids = 75, ang-grids = [ 50  50  50  50  50  50  50  50  50  50  50  50  50  50  50  50  50  50
  50  50  50  50  50  86  86  86  86  86  86  86  86  86  86 266 266 266
 266 266 266 266 302 302 302 302 302 302 302 302 302 302 302 302 302 302
 302 302 302 302 302 302 266 266 266 266 266 266 266 266 266 266 266 266
 266 266 266]
atom H rad-grids = 50, ang-grids = [ 50  50  50  50  50  50  50  50  50  50  50  50  50  50  86  86  86  86
 266 266 266 266 302 302 302 302 302 302 302 302 302 302 302 302 302 266
 266 266 266 266 266 266 266 266 266 266 266 266 266 266]
tot grids = 1151734
Drop grids 212379
    CPU time for setting up grids    466.28 sec, wall time     29.26 sec
nelec by numeric integration = 306.00012810521446
    CPU time for vxc    645.39 sec, wall time     37.15 sec
******** <class 'pyscf.df.df.DF'> ********
auxbasis = None
max_memory = 160000
_cderi_to_save = /tmp/job.16252230.hpc/tmp24isyqsv
Default auxbasis def2-tzvp-jkfit is used for H def2-tzvp
Default auxbasis def2-tzvp-jkfit is used for O def2-tzvp
Default auxbasis def2-tzvp-jkfit is used for C def2-tzvp
num shells = 1373, num cGTOs = 4121
size of aux basis 4121
int3c2e [1/2], AO [0:610], nrow = 1137786
int3c2e [2/2], AO [610:683], nrow = 173604
    CPU time for cholesky_eri    989.25 sec, wall time    154.73 sec
    CPU time for df vj and vk   3294.17 sec, wall time    313.89 sec
E1 = -9514.629063221259  Ecoul = 4451.550278013235  Exc = -245.1772212708442
init E= -1632.88537259309
cond(S) = 984278.0677788383
    CPU time for initialize scf   4438.83 sec, wall time    382.58 sec
  HOMO = -0.168723783417627  LUMO = -0.0956378333089908
  mo_energy =
[-1.92030417e+01 -1.02855474e+01 -1.02423485e+01 -1.02422365e+01
 -1.02419431e+01 -1.02397957e+01 -1.02395446e+01 -1.02387173e+01
 -1.02315853e+01 -1.02313703e+01 -1.02312395e+01 -1.02307090e+01
 -1.02301178e+01 -1.02292679e+01 -1.02287208e+01 -1.02283137e+01
 -1.02282249e+01 -1.02279971e+01 -1.02266843e+01 -1.02256279e+01
 -1.02252878e+01 -1.02249847e+01 -1.02238527e+01 -1.02236343e+01
 -1.02228234e+01 -1.02218533e+01 -1.02216427e+01 -1.02214516e+01
 -1.02209875e+01 -1.02208269e+01 -1.02204802e+01 -1.02202170e+01
 -1.02201664e+01 -1.02177211e+01 -1.02176642e+01 -1.02166634e+01
 -1.02165050e+01 -1.02148616e+01 -1.02123376e+01 -1.02109210e+01
 -1.02068092e+01 -1.04673143e+00 -8.74797777e-01 -8.62216073e-01
 -8.58462153e-01 -8.52005362e-01 -8.45049707e-01 -8.39854325e-01
 -8.21794842e-01 -8.12825094e-01 -8.07861003e-01 -7.98814463e-01
 -7.90396961e-01 -7.75630504e-01 -7.67399941e-01 -7.52567066e-01
 -7.41593279e-01 -7.26072798e-01 -7.12789502e-01 -7.09659460e-01
 -7.08346179e-01 -7.07009237e-01 -7.00165850e-01 -6.98508337e-01
 -6.96004336e-01 -6.90090150e-01 -6.78684948e-01 -6.52992486e-01
 -6.37940019e-01 -6.21331334e-01 -6.10602003e-01 -5.90286338e-01
 -5.80847539e-01 -5.79643264e-01 -5.74770032e-01 -5.61108974e-01
 -5.50604900e-01 -5.45953533e-01 -5.43524614e-01 -5.35005770e-01
 -5.24453245e-01 -5.11152729e-01 -5.08307756e-01 -5.03715036e-01
 -4.95796067e-01 -4.88531086e-01 -4.83672651e-01 -4.81404976e-01
 -4.74838545e-01 -4.73499511e-01 -4.64924616e-01 -4.59787356e-01
 -4.58146242e-01 -4.53366440e-01 -4.51417128e-01 -4.43135189e-01
 -4.38642365e-01 -4.34491531e-01 -4.32722433e-01 -4.31856988e-01
 -4.31469449e-01 -4.29926313e-01 -4.29315536e-01 -4.28408549e-01
 -4.27939517e-01 -4.26035240e-01 -4.23151676e-01 -4.09961596e-01
 -4.07710864e-01 -4.07257363e-01 -4.05821240e-01 -4.02126750e-01
 -3.99084159e-01 -3.97022387e-01 -3.90356584e-01 -3.89324166e-01
 -3.88215153e-01 -3.84674195e-01 -3.83282043e-01 -3.80337354e-01
 -3.77114373e-01 -3.76594193e-01 -3.73930666e-01 -3.72087140e-01
 -3.69655484e-01 -3.67134219e-01 -3.61872306e-01 -3.61027573e-01
 -3.59083099e-01 -3.56212565e-01 -3.53777572e-01 -3.52985837e-01
 -3.51318431e-01 -3.49682111e-01 -3.47136336e-01 -3.46629282e-01
 -3.45397049e-01 -3.40985388e-01 -3.37404388e-01 -3.31985496e-01
 -3.27939145e-01 -3.26594757e-01 -3.21727742e-01 -3.18819476e-01
 -3.07998305e-01 -3.02564601e-01 -2.88853784e-01 -2.87370138e-01
 -2.67148887e-01 -2.46589689e-01 -2.24701511e-01 -2.00044404e-01
 -1.68723783e-01 -9.56378333e-02 -5.60712291e-02 -2.38720304e-02
  4.65019981e-03  2.62882126e-02  2.92237729e-02  3.65855480e-02
  4.17808744e-02  4.54802663e-02  4.60327320e-02  5.09314657e-02
  5.53368434e-02  5.71366782e-02  5.87498350e-02  6.11950244e-02
  6.42077696e-02  6.80906944e-02  6.97722175e-02  7.17048024e-02
  7.27988346e-02  7.39820952e-02  7.72540000e-02  7.75688392e-02
  8.10042991e-02  8.14534770e-02  8.20307694e-02  8.48069828e-02
  9.07066056e-02  9.31424954e-02  9.42695741e-02  9.60964562e-02
  9.86889549e-02  9.91968055e-02  1.00609714e-01  1.02758855e-01
  1.07055695e-01  1.09060538e-01  1.11282958e-01  1.15134186e-01
  1.18646600e-01  1.23129464e-01  1.24655059e-01  1.25588712e-01
  1.27010834e-01  1.30019117e-01  1.31665904e-01  1.32193921e-01
  1.33465786e-01  1.35844500e-01  1.36712560e-01  1.39290799e-01
  1.41562854e-01  1.41677700e-01  1.43754606e-01  1.48037402e-01
  1.49109433e-01  1.50545841e-01  1.52758254e-01  1.53790026e-01
  1.55250041e-01  1.55631211e-01  1.57965036e-01  1.60874439e-01
  1.62720975e-01  1.64576291e-01  1.65533538e-01  1.69805371e-01
  1.70919996e-01  1.74447146e-01  1.76371679e-01  1.81004493e-01
  1.81396250e-01  1.82081225e-01  1.83024296e-01  1.85887023e-01
  1.88140720e-01  1.91301396e-01  1.91743936e-01  1.93139330e-01
  1.94994383e-01  1.95613640e-01  1.99297955e-01  2.00286725e-01
  2.03725887e-01  2.06864402e-01  2.07877261e-01  2.09764164e-01
  2.14762674e-01  2.14847330e-01  2.15880846e-01  2.18142838e-01
  2.20103998e-01  2.21659339e-01  2.23550244e-01  2.24998047e-01
  2.26945668e-01  2.28154293e-01  2.32266277e-01  2.37402213e-01
  2.38687839e-01  2.42874529e-01  2.43803924e-01  2.44849892e-01
  2.46019581e-01  2.50077108e-01  2.52325710e-01  2.54230197e-01
  2.56940434e-01  2.60689862e-01  2.64259206e-01  2.65732786e-01
  2.67732656e-01  2.71220664e-01  2.72151605e-01  2.74587357e-01
  2.75843750e-01  2.79606346e-01  2.80302711e-01  2.83339391e-01
  2.85828010e-01  2.88089646e-01  2.89358060e-01  2.91397968e-01
  2.94048650e-01  2.96384770e-01  2.98514795e-01  3.01282287e-01
  3.03149023e-01  3.06037945e-01  3.09944047e-01  3.13452418e-01
  3.14461254e-01  3.16361732e-01  3.18704256e-01  3.22826524e-01
  3.25573527e-01  3.27854821e-01  3.29428813e-01  3.29811256e-01
  3.33010653e-01  3.35725970e-01  3.37060286e-01  3.40290447e-01
  3.41167548e-01  3.42532848e-01  3.44376093e-01  3.47870239e-01
  3.49485076e-01  3.50836211e-01  3.52079392e-01  3.56915480e-01
  3.58972673e-01  3.62018502e-01  3.62755526e-01  3.65409808e-01
  3.69072640e-01  3.69945898e-01  3.70315814e-01  3.72520160e-01
  3.75370452e-01  3.76677450e-01  3.79503163e-01  3.80311024e-01
  3.82741875e-01  3.85694680e-01  3.88977493e-01  3.89789063e-01
  3.91328287e-01  3.96688602e-01  3.97865446e-01  3.98478563e-01
  4.01253064e-01  4.03093876e-01  4.04815985e-01  4.06076053e-01
  4.07657392e-01  4.09416819e-01  4.11722715e-01  4.13995695e-01
  4.14948997e-01  4.16604870e-01  4.18811411e-01  4.20134509e-01
  4.21521224e-01  4.24131227e-01  4.26404737e-01  4.27922970e-01
  4.30927763e-01  4.31698349e-01  4.32584317e-01  4.33767101e-01
  4.35173297e-01  4.36600762e-01  4.39720130e-01  4.41354628e-01
  4.42763270e-01  4.43067631e-01  4.44711129e-01  4.46926285e-01
  4.48562800e-01  4.50451083e-01  4.51953995e-01  4.53055895e-01
  4.53390830e-01  4.55201568e-01  4.55718769e-01  4.56835920e-01
  4.58584221e-01  4.60479836e-01  4.63231734e-01  4.66901882e-01
  4.67963163e-01  4.69833445e-01  4.71556572e-01  4.72515683e-01
  4.75450714e-01  4.77038819e-01  4.78779556e-01  4.79522090e-01
  4.80895069e-01  4.84009543e-01  4.84384837e-01  4.86765235e-01
  4.88485164e-01  4.90875982e-01  4.92073800e-01  4.93841027e-01
  4.94102839e-01  4.96576612e-01  4.97231070e-01  4.98284194e-01
  5.00193738e-01  5.02272431e-01  5.03524979e-01  5.06786402e-01
  5.09676924e-01  5.13738123e-01  5.14217795e-01  5.16437078e-01
  5.18267433e-01  5.20816976e-01  5.22213452e-01  5.28665900e-01
  5.29340244e-01  5.30682227e-01  5.33590856e-01  5.35941180e-01
  5.37446390e-01  5.41634769e-01  5.43457302e-01  5.48516766e-01
  5.50959504e-01  5.52823299e-01  5.53981233e-01  5.55259727e-01
  5.64133256e-01  5.66585343e-01  5.68898347e-01  5.71930627e-01
  5.75091532e-01  5.79496240e-01  5.83800944e-01  5.84935518e-01
  5.85778767e-01  5.90195383e-01  5.92419204e-01  5.93480242e-01
  5.97433971e-01  5.98988431e-01  5.99305111e-01  6.01855416e-01
  6.04678189e-01  6.07782111e-01  6.10180350e-01  6.10374453e-01
  6.18599588e-01  6.20522688e-01  6.23992536e-01  6.25991380e-01
  6.28152462e-01  6.29995328e-01  6.35270476e-01  6.38872621e-01
  6.41308908e-01  6.42367533e-01  6.45155790e-01  6.47061100e-01
  6.49630066e-01  6.49879763e-01  6.52908767e-01  6.56842219e-01
  6.61773402e-01  6.63249611e-01  6.64283596e-01  6.67786959e-01
  6.70591526e-01  6.74043938e-01  6.75172001e-01  6.78996678e-01
  6.80764521e-01  6.83165401e-01  6.87179809e-01  6.89622037e-01
  6.94180045e-01  6.96814634e-01  7.01129595e-01  7.02481733e-01
  7.07096822e-01  7.10430763e-01  7.13508896e-01  7.15743837e-01
  7.16627595e-01  7.20385884e-01  7.21614943e-01  7.25728604e-01
  7.29431959e-01  7.31815467e-01  7.34101260e-01  7.36452392e-01
  7.39857259e-01  7.43202145e-01  7.44083668e-01  7.47515039e-01
  7.50929990e-01  7.54282907e-01  7.57034545e-01  7.58999284e-01
  7.64169198e-01  7.67498906e-01  7.67716930e-01  7.70145733e-01
  7.73868061e-01  7.81256130e-01  7.83082633e-01  7.85939352e-01
  7.88558061e-01  7.93450716e-01  7.94738144e-01  8.00433005e-01
  8.01456562e-01  8.06906603e-01  8.11377313e-01  8.12823882e-01
  8.16793364e-01  8.19260231e-01  8.21968412e-01  8.26688481e-01
  8.29881562e-01  8.37299040e-01  8.38496405e-01  8.42653132e-01
  8.43572581e-01  8.50057754e-01  8.58400541e-01  8.60646843e-01
  8.69335036e-01  8.71270293e-01  8.71996343e-01  8.76686545e-01
  8.82102437e-01  8.85724830e-01  8.87380362e-01  8.90382725e-01
  8.92629480e-01  8.95811237e-01  8.96439952e-01  9.02485424e-01
  9.03341386e-01  9.07660129e-01  9.10814835e-01  9.14914012e-01
  9.18652488e-01  9.20640950e-01  9.20917543e-01  9.23809744e-01
  9.27228148e-01  9.35378257e-01  9.40527142e-01  9.41312862e-01
  9.43812698e-01  9.44580464e-01  9.50470144e-01  9.54908889e-01
  9.56898912e-01  9.58924565e-01  9.63451073e-01  9.67986016e-01
  9.71535331e-01  9.75604306e-01  9.79957393e-01  9.82517150e-01
  9.85745991e-01  9.88350654e-01  9.89019411e-01  9.90186318e-01
  9.96550974e-01  1.00011941e+00  1.00737312e+00  1.01288583e+00
  1.01849721e+00  1.01901170e+00  1.02165498e+00  1.02438605e+00
  1.03116242e+00  1.03293795e+00  1.03375938e+00  1.03737157e+00
  1.04203269e+00  1.04688001e+00  1.04862114e+00  1.05142259e+00
  1.05219602e+00  1.05510445e+00  1.06026918e+00  1.06322946e+00
  1.06533717e+00  1.06946062e+00  1.07246519e+00  1.07955515e+00
  1.08222909e+00  1.08643546e+00  1.08928093e+00  1.09358212e+00
  1.09517384e+00  1.09790860e+00  1.09979194e+00  1.10266563e+00
  1.10442018e+00  1.10837349e+00  1.11011400e+00  1.11659827e+00
  1.12294959e+00  1.12696837e+00  1.12926287e+00  1.13645990e+00
  1.13680239e+00  1.14002306e+00  1.14046376e+00  1.14835577e+00
  1.15192632e+00  1.15513527e+00  1.15812482e+00  1.16451628e+00
  1.16945305e+00  1.17533960e+00  1.17672617e+00  1.18420962e+00
  1.18766445e+00  1.18949160e+00  1.19104048e+00  1.19823504e+00
  1.20246643e+00  1.20462754e+00  1.21018652e+00  1.21114716e+00
  1.21445486e+00  1.21858880e+00  1.22422357e+00  1.22659132e+00
  1.22909150e+00  1.23356154e+00  1.23403330e+00  1.23817762e+00
  1.24252202e+00  1.24535596e+00  1.24969599e+00  1.25380283e+00
  1.25783913e+00  1.25894526e+00  1.26317185e+00  1.26885957e+00
  1.26983475e+00  1.27448912e+00  1.27606440e+00  1.27911100e+00
  1.28217675e+00  1.28567453e+00  1.28915782e+00  1.29375173e+00
  1.29566899e+00  1.30286072e+00  1.30966667e+00  1.31132205e+00
  1.31334620e+00  1.31683581e+00  1.32019781e+00  1.32149721e+00
  1.32819652e+00  1.33293637e+00  1.33575232e+00  1.34387917e+00
  1.34662549e+00  1.34898936e+00  1.35606955e+00  1.35969655e+00
  1.36417610e+00  1.36749572e+00  1.37071702e+00  1.37894723e+00
  1.37991387e+00  1.38065887e+00  1.38629822e+00  1.38841495e+00
  1.39310831e+00  1.39741894e+00  1.40076317e+00  1.40316112e+00
  1.40717004e+00  1.41662982e+00  1.42674305e+00  1.43444956e+00
  1.44023823e+00  1.44240592e+00  1.44816505e+00  1.44903587e+00
  1.45386476e+00  1.45782165e+00  1.46105685e+00  1.46283639e+00
  1.46433659e+00  1.47394860e+00  1.47635083e+00  1.48248393e+00
  1.48832898e+00  1.49258838e+00  1.50080742e+00  1.50817322e+00
  1.50946664e+00  1.51640368e+00  1.51925918e+00  1.52032372e+00
  1.52382247e+00  1.52915355e+00  1.53076371e+00  1.53535686e+00
  1.53594429e+00  1.53830392e+00  1.54009763e+00  1.54348543e+00
  1.54413908e+00  1.54600906e+00  1.54712938e+00  1.54765231e+00
  1.54963340e+00  1.55080373e+00  1.55551373e+00  1.55643289e+00
  1.55811032e+00  1.55967422e+00  1.56220539e+00  1.56429968e+00
  1.56634426e+00  1.56815375e+00  1.57276832e+00  1.57574522e+00
  1.57643075e+00  1.57834808e+00  1.58144287e+00  1.58507871e+00
  1.58847284e+00  1.58982676e+00  1.59164977e+00  1.59433236e+00
  1.60011578e+00  1.60209652e+00  1.60343351e+00  1.60587358e+00
  1.61099535e+00  1.61567814e+00  1.61630612e+00  1.61835364e+00
  1.61929425e+00  1.61967715e+00  1.62040428e+00  1.62463422e+00
  1.62647901e+00  1.62782321e+00  1.62980863e+00  1.63133822e+00
  1.63347355e+00  1.63728478e+00  1.63882941e+00  1.64112060e+00
  1.64201075e+00  1.64612328e+00  1.65072982e+00  1.65387275e+00
  1.65858740e+00  1.65883325e+00  1.66192898e+00  1.66791581e+00
  1.66859062e+00  1.67038620e+00  1.67174483e+00  1.67731389e+00
  1.67790855e+00  1.68246752e+00  1.68298955e+00  1.69283229e+00
  1.69398075e+00  1.69858061e+00  1.70247615e+00  1.70589802e+00
  1.71270333e+00  1.71473217e+00  1.71766009e+00  1.72116459e+00
  1.72907863e+00  1.73096138e+00  1.73314219e+00  1.73593712e+00
  1.74358874e+00  1.74660116e+00  1.75107095e+00  1.75578456e+00
  1.76001756e+00  1.76106553e+00  1.76898874e+00  1.77207396e+00
  1.77870675e+00  1.78160765e+00  1.78516333e+00  1.78982451e+00
  1.79829132e+00  1.80020021e+00  1.80449322e+00  1.80614995e+00
  1.81183957e+00  1.81501043e+00  1.82121333e+00  1.82600184e+00
  1.82977411e+00  1.83140584e+00  1.83566121e+00  1.84084185e+00
  1.84483429e+00  1.85086091e+00  1.85274375e+00  1.85771525e+00
  1.86672745e+00  1.86933439e+00  1.88040884e+00  1.88231327e+00
  1.88286790e+00  1.88813440e+00  1.89038988e+00  1.89267516e+00
  1.89706721e+00  1.89836069e+00  1.90602409e+00  1.90737260e+00
  1.91440235e+00  1.91517655e+00  1.92185269e+00  1.92408376e+00
  1.92587395e+00  1.93682897e+00  1.93717017e+00  1.94307332e+00
  1.94866128e+00  1.95708826e+00  1.95920697e+00  1.96788143e+00
  1.96820226e+00  1.97029622e+00  1.97393217e+00  1.97736657e+00
  1.98431016e+00  1.98795668e+00  1.99013997e+00  1.99414495e+00
  2.00217650e+00  2.00705273e+00  2.00932002e+00  2.01454305e+00
  2.01667858e+00  2.01935388e+00  2.02285327e+00  2.02582154e+00
  2.02648552e+00  2.03098173e+00  2.03434948e+00  2.03759949e+00
  2.04918904e+00  2.05099833e+00  2.05141180e+00  2.05162308e+00
  2.05604149e+00  2.06040468e+00  2.06714589e+00  2.07153518e+00
  2.07467281e+00  2.07792565e+00  2.08011580e+00  2.08453100e+00
  2.08793000e+00  2.08936590e+00  2.09098784e+00  2.09221751e+00
  2.10220670e+00  2.10662041e+00  2.11069593e+00  2.11484886e+00
  2.12290774e+00  2.12470341e+00  2.13124444e+00  2.13472439e+00
  2.14062474e+00  2.14361091e+00  2.14619276e+00  2.15773711e+00
  2.16058403e+00  2.16172488e+00  2.16293261e+00  2.16837678e+00
  2.17079603e+00  2.17287700e+00  2.17893004e+00  2.18217947e+00
  2.18578017e+00  2.18774712e+00  2.18891312e+00  2.19435942e+00
  2.19688872e+00  2.20294447e+00  2.20446097e+00  2.21304784e+00
  2.22345378e+00  2.23016032e+00  2.23231188e+00  2.24171075e+00
  2.24624437e+00  2.24860789e+00  2.25391056e+00  2.25811446e+00
  2.25953674e+00  2.26641043e+00  2.27003990e+00  2.27389490e+00
  2.28330237e+00  2.28725841e+00  2.28830731e+00  2.29184494e+00
  2.29626427e+00  2.29964499e+00  2.30114619e+00  2.30555991e+00
  2.30794840e+00  2.30937397e+00  2.31859083e+00  2.32332261e+00
  2.32440219e+00  2.32613974e+00  2.32948991e+00  2.33207666e+00
  2.33452778e+00  2.33892209e+00  2.34196226e+00  2.34478202e+00
  2.34848267e+00  2.35325839e+00  2.36357243e+00  2.36572639e+00
  2.36756858e+00  2.37410065e+00  2.37804553e+00  2.38042206e+00
  2.38281705e+00  2.38466649e+00  2.38780132e+00  2.39174262e+00
  2.39428563e+00  2.39668075e+00  2.39978277e+00  2.40511028e+00
  2.40768385e+00  2.40823136e+00  2.41069804e+00  2.41767137e+00
  2.42377936e+00  2.42614335e+00  2.42698053e+00  2.43037199e+00
  2.43263079e+00  2.43695978e+00  2.44060809e+00  2.44115455e+00
  2.44836177e+00  2.45252738e+00  2.45696519e+00  2.46156469e+00
  2.46516176e+00  2.46816855e+00  2.47031155e+00  2.47589479e+00
  2.47757906e+00  2.49045897e+00  2.49122123e+00  2.49583842e+00
  2.50289537e+00  2.50548266e+00  2.51004500e+00  2.51006565e+00
  2.51695199e+00  2.52227832e+00  2.52543353e+00  2.52733792e+00
  2.52782144e+00  2.52960646e+00  2.53167473e+00  2.53204756e+00
  2.53451834e+00  2.53692481e+00  2.53807052e+00  2.54197798e+00
  2.54354095e+00  2.54592153e+00  2.54816704e+00  2.55207933e+00
  2.55977055e+00  2.56210313e+00  2.56435675e+00  2.56608056e+00
  2.56806248e+00  2.57228528e+00  2.57398534e+00  2.57639592e+00
  2.58069140e+00  2.58504597e+00  2.58729149e+00  2.59024593e+00
  2.59157774e+00  2.59497392e+00  2.59754725e+00  2.59902502e+00
  2.60473527e+00  2.60692153e+00  2.60985886e+00  2.61100161e+00
  2.61334716e+00  2.61560723e+00  2.61814652e+00  2.61912557e+00
  2.62392854e+00  2.62644272e+00  2.62928238e+00  2.63388358e+00
  2.63763535e+00  2.63881620e+00  2.64313659e+00  2.64628232e+00
  2.64728879e+00  2.65436122e+00  2.65960872e+00  2.66317674e+00
  2.66380701e+00  2.67032740e+00  2.67678541e+00  2.68028511e+00
  2.68446156e+00  2.68643891e+00  2.69132574e+00  2.69332696e+00
  2.69929853e+00  2.70495247e+00  2.70657804e+00  2.70762925e+00
  2.71174416e+00  2.71661352e+00  2.72242542e+00  2.72384924e+00
  2.72660863e+00  2.72995013e+00  2.73317306e+00  2.73595414e+00
  2.73690936e+00  2.74245767e+00  2.74805621e+00  2.74879413e+00
  2.75272210e+00  2.75447160e+00  2.75633541e+00  2.76830532e+00
  2.77043421e+00  2.77162063e+00  2.77387960e+00  2.77485711e+00
  2.77774003e+00  2.77895507e+00  2.78350413e+00  2.78568720e+00
  2.78793630e+00  2.79109356e+00  2.79623494e+00  2.80046143e+00
  2.80246358e+00  2.80400011e+00  2.80698191e+00  2.81131083e+00
  2.81669437e+00  2.82009905e+00  2.82042896e+00  2.82569673e+00
  2.82938474e+00  2.83263005e+00  2.83812981e+00  2.84151789e+00
  2.84596999e+00  2.85195371e+00  2.85418978e+00  2.85751118e+00
  2.85824308e+00  2.85878231e+00  2.86035200e+00  2.86277266e+00
  2.86811084e+00  2.87213152e+00  2.87558607e+00  2.88165539e+00
  2.88261342e+00  2.88863311e+00  2.89026138e+00  2.89166583e+00
  2.89835469e+00  2.90092424e+00  2.90849006e+00  2.91006012e+00
  2.91232738e+00  2.91578780e+00  2.92238952e+00  2.92326379e+00
  2.92495286e+00  2.92794431e+00  2.92941406e+00  2.93153757e+00
  2.93178619e+00  2.93467240e+00  2.94234194e+00  2.95033560e+00
  2.95220599e+00  2.95287871e+00  2.95493786e+00  2.95710456e+00
  2.96519441e+00  2.97099436e+00  2.97626115e+00  2.98157615e+00
  2.99098667e+00  2.99428856e+00  2.99658730e+00  2.99934973e+00
  3.00470837e+00  3.00570980e+00  3.01056405e+00  3.01289122e+00
  3.01571029e+00  3.02101394e+00  3.02338831e+00  3.02908393e+00
  3.03202384e+00  3.03902382e+00  3.04149206e+00  3.04327344e+00
  3.04639913e+00  3.05154716e+00  3.05382175e+00  3.05614037e+00
  3.06366550e+00  3.06815807e+00  3.07157837e+00  3.07344527e+00
  3.07945961e+00  3.08131976e+00  3.08624908e+00  3.08775783e+00
  3.09010828e+00  3.09257181e+00  3.09512188e+00  3.09770865e+00
  3.10048162e+00  3.10168750e+00  3.10678541e+00  3.11114026e+00
  3.11376211e+00  3.11707755e+00  3.12075478e+00  3.12361203e+00
  3.12551117e+00  3.13180489e+00  3.13240973e+00  3.13629395e+00
  3.13784553e+00  3.14122419e+00  3.14292398e+00  3.14431544e+00
  3.14943129e+00  3.15087166e+00  3.15304767e+00  3.15693332e+00
  3.15871145e+00  3.16168135e+00  3.16495609e+00  3.16604464e+00
  3.16870669e+00  3.17321752e+00  3.17475703e+00  3.17607608e+00
  3.17956216e+00  3.18041942e+00  3.18235675e+00  3.18296227e+00
  3.18688931e+00  3.19123514e+00  3.19415988e+00  3.19691735e+00
  3.19795492e+00  3.20079365e+00  3.20300212e+00  3.20813808e+00
  3.21318289e+00  3.21490152e+00  3.21745912e+00  3.22011767e+00
  3.22486716e+00  3.22699033e+00  3.23046383e+00  3.23281418e+00
  3.23463013e+00  3.23931596e+00  3.24285631e+00  3.24579718e+00
  3.24812556e+00  3.25030355e+00  3.25388939e+00  3.25701228e+00
  3.25827518e+00  3.26297257e+00  3.26563276e+00  3.26823230e+00
  3.27113798e+00  3.27333320e+00  3.27354283e+00  3.27539701e+00
  3.27802106e+00  3.28359001e+00  3.28611700e+00  3.29042321e+00
  3.29320704e+00  3.29604212e+00  3.29703180e+00  3.30058639e+00
  3.30292331e+00  3.30309201e+00  3.30881043e+00  3.31229026e+00
  3.31656405e+00  3.32050350e+00  3.32343675e+00  3.32709801e+00
  3.32995831e+00  3.33245983e+00  3.33615649e+00  3.33796732e+00
  3.34096163e+00  3.34380238e+00  3.34481464e+00  3.34546778e+00
  3.35041981e+00  3.35392544e+00  3.35496891e+00  3.35635014e+00
  3.36070095e+00  3.36399740e+00  3.36704769e+00  3.36958928e+00
  3.37130990e+00  3.37290628e+00  3.37533085e+00  3.37642762e+00
  3.37930943e+00  3.38395271e+00  3.38542369e+00  3.39142248e+00
  3.39598602e+00  3.39816501e+00  3.40045025e+00  3.40321290e+00
  3.40599506e+00  3.40765995e+00  3.40911251e+00  3.41121018e+00
  3.41272197e+00  3.42045206e+00  3.42262881e+00  3.42421511e+00
  3.43164749e+00  3.43325571e+00  3.43862970e+00  3.44212065e+00
  3.44541296e+00  3.44698787e+00  3.44865193e+00  3.45228810e+00
  3.45653949e+00  3.45951088e+00  3.46568145e+00  3.46819939e+00
  3.46962479e+00  3.47586428e+00  3.48040501e+00  3.48644644e+00
  3.48897620e+00  3.49394329e+00  3.49620537e+00  3.49835959e+00
  3.50406083e+00  3.50987325e+00  3.51200348e+00  3.51452977e+00
  3.51675832e+00  3.52072375e+00  3.52310073e+00  3.52591486e+00
  3.52990828e+00  3.53322693e+00  3.53396897e+00  3.53631224e+00
  3.53787297e+00  3.54498889e+00  3.55014788e+00  3.55332164e+00
  3.55439491e+00  3.56041309e+00  3.56299348e+00  3.56527992e+00
  3.57038834e+00  3.57770712e+00  3.57959807e+00  3.58315068e+00
  3.58546637e+00  3.58695488e+00  3.59361557e+00  3.59614209e+00
  3.59873039e+00  3.59952408e+00  3.60415849e+00  3.61073715e+00
  3.61523290e+00  3.61589531e+00  3.62041950e+00  3.62560218e+00
  3.62695876e+00  3.63061034e+00  3.63387958e+00  3.63948836e+00
  3.63977526e+00  3.64639785e+00  3.65315656e+00  3.65580027e+00
  3.65684342e+00  3.66464714e+00  3.67025223e+00  3.67180841e+00
  3.67897491e+00  3.68358176e+00  3.68543096e+00  3.68932753e+00
  3.70153129e+00  3.70760817e+00  3.70944396e+00  3.71786715e+00
  3.72064323e+00  3.72263410e+00  3.72422345e+00  3.72732371e+00
  3.73261306e+00  3.73592102e+00  3.74286590e+00  3.75203530e+00
  3.75469181e+00  3.76169311e+00  3.76382120e+00  3.77445833e+00
  3.77781143e+00  3.77944122e+00  3.78169956e+00  3.78451674e+00
  3.79132511e+00  3.79203730e+00  3.79983564e+00  3.81133752e+00
  3.81214717e+00  3.81881634e+00  3.82723996e+00  3.83392714e+00
  3.83669557e+00  3.83932979e+00  3.84259841e+00  3.85477863e+00
  3.85886763e+00  3.85956212e+00  3.86672447e+00  3.87287484e+00
  3.88140832e+00  3.89061879e+00  3.89453328e+00  3.89743385e+00
  3.89906714e+00  3.90780963e+00  3.90831487e+00  3.91927559e+00
  3.92587383e+00  3.92830845e+00  3.93302262e+00  3.94181093e+00
  3.94484214e+00  3.95225771e+00  3.95438568e+00  3.95970269e+00
  3.96646985e+00  3.96798302e+00  3.97467247e+00  3.97957569e+00
  3.98030298e+00  3.98415490e+00  3.99115130e+00  3.99222903e+00
  4.00248976e+00  4.00724691e+00  4.01003318e+00  4.01661502e+00
  4.01789251e+00  4.02317770e+00  4.02743433e+00  4.03538275e+00
  4.03954687e+00  4.05240735e+00  4.05280771e+00  4.05494907e+00
  4.06340861e+00  4.06628263e+00  4.07441039e+00  4.08856536e+00
  4.09139526e+00  4.09728655e+00  4.09880486e+00  4.10765273e+00
  4.11025223e+00  4.12086573e+00  4.12273149e+00  4.13857476e+00
  4.14216122e+00  4.14494032e+00  4.15139726e+00  4.15184343e+00
  4.15566350e+00  4.16736896e+00  4.17659091e+00  4.18038845e+00
  4.19072170e+00  4.19578736e+00  4.21065864e+00  4.21797614e+00
  4.22567270e+00  4.22881758e+00  4.23323866e+00  4.24339146e+00
  4.24797197e+00  4.25344288e+00  4.25514233e+00  4.25666432e+00
  4.26449952e+00  4.26777809e+00  4.26806716e+00  4.27400719e+00
  4.28425359e+00  4.28809484e+00  4.29115113e+00  4.29881293e+00
  4.30426648e+00  4.30742592e+00  4.30947632e+00  4.31371853e+00
  4.31776887e+00  4.32277190e+00  4.32683046e+00  4.33064223e+00
  4.33776880e+00  4.34664242e+00  4.35038519e+00  4.35450234e+00
  4.35690436e+00  4.36707636e+00  4.37833903e+00  4.38332011e+00
  4.38900190e+00  4.39454579e+00  4.40136559e+00  4.40456431e+00
  4.41172344e+00  4.41810147e+00  4.42059315e+00  4.42375132e+00
  4.42583000e+00  4.42835964e+00  4.43471160e+00  4.43865810e+00
  4.45056338e+00  4.45361810e+00  4.45795723e+00  4.46525439e+00
  4.47007777e+00  4.47284425e+00  4.48262170e+00  4.48653886e+00
  4.48809954e+00  4.49107594e+00  4.49715356e+00  4.49837190e+00
  4.50229675e+00  4.51184128e+00  4.52557042e+00  4.52850168e+00
  4.53612455e+00  4.54475427e+00  4.54611093e+00  4.55168707e+00
  4.55855425e+00  4.56872879e+00  4.58364578e+00  4.59847941e+00
  4.59901740e+00  4.60695929e+00  4.61471813e+00  4.62330909e+00
  4.62883951e+00  4.63539395e+00  4.64663101e+00  4.64837638e+00
  4.65305192e+00  4.66189830e+00  4.66750507e+00  4.67034307e+00
  4.67770201e+00  4.69223363e+00  4.70568334e+00  4.70659647e+00
  4.70853189e+00  4.71639813e+00  4.72511168e+00  4.74337664e+00
  4.75065243e+00  4.75151988e+00  4.76299393e+00  4.78576160e+00
  4.79020965e+00  4.79935708e+00  4.81359413e+00  4.82376095e+00
  4.83005333e+00  4.84593098e+00  4.85616373e+00  4.86107265e+00
  4.87550428e+00  4.88338171e+00  4.89639994e+00  4.90421530e+00
  4.91144857e+00  4.91815071e+00  4.92765394e+00  4.93118948e+00
  4.94239170e+00  4.96302609e+00  4.97163289e+00  4.97886576e+00
  4.98752264e+00  5.00440686e+00  5.01345938e+00  5.03935555e+00
  5.04182315e+00  5.05867681e+00  5.07640857e+00  5.09278323e+00
  5.11113084e+00  5.11602143e+00  5.12362930e+00  5.13812081e+00
  5.14539645e+00  5.14959893e+00  5.17922746e+00  5.18373774e+00
  5.19216593e+00  5.19923967e+00  5.21690742e+00  5.23207579e+00
  5.23688308e+00  5.25296437e+00  5.28095840e+00  5.28699557e+00
  5.31688478e+00  5.32774795e+00  5.33028820e+00  5.35987332e+00
  5.36125669e+00  5.39071183e+00  5.39665002e+00  5.44079420e+00
  5.44387573e+00  5.48888427e+00  5.52502034e+00  5.53577922e+00
  5.57068848e+00  5.59185193e+00  5.63617799e+00  5.65454435e+00
  5.67085107e+00  5.78466697e+00  5.79393629e+00  5.93799195e+00
  6.30009743e+00  6.53626786e+00  6.78152191e+00  6.87855798e+00
  7.04398176e+00  7.20284875e+00  2.23536620e+01  2.24052337e+01
  2.24131918e+01  2.24295909e+01  2.24506023e+01  2.24573006e+01
  2.24659431e+01  2.24736280e+01  2.24788075e+01  2.24904794e+01
  2.25045278e+01  2.25327577e+01  2.25543445e+01  2.25761349e+01
  2.25849390e+01  2.25984388e+01  2.26105151e+01  2.26251517e+01
  2.26446341e+01  2.26613257e+01  2.26710129e+01  2.26728578e+01
  2.26797537e+01  2.27099619e+01  2.27256186e+01  2.27580334e+01
  2.27682602e+01  2.27778581e+01  2.28055438e+01  2.28166181e+01
  2.28413019e+01  2.28631580e+01  2.29093581e+01  2.29198637e+01
  2.30582773e+01  2.30914591e+01  2.31323131e+01  2.31673566e+01
  2.31848273e+01  2.33172047e+01  4.41890728e+01]
nelec by numeric integration = 306.0001275493229
    CPU time for vxc    469.92 sec, wall time     27.21 sec
    CPU time for df vj and vk   2295.72 sec, wall time    160.40 sec
E1 = -9514.629053627572  Ecoul = 4451.550269897661  Exc = -245.17722256573302
cycle= 1 E= -1632.88537240987  delta_E= 1.83e-07  |g|= 3.16e-05  |ddm|= 0.000303
    CPU time for cycle= 1   2786.42 sec, wall time    189.12 sec
  HOMO = -0.168723289621964  LUMO = -0.0956370359987663
  mo_energy =
[-1.92030481e+01 -1.02855445e+01 -1.02423526e+01 -1.02422188e+01
 -1.02419579e+01 -1.02398020e+01 -1.02395486e+01 -1.02387164e+01
 -1.02315805e+01 -1.02313635e+01 -1.02312337e+01 -1.02307077e+01
 -1.02301059e+01 -1.02292735e+01 -1.02287225e+01 -1.02283165e+01
 -1.02282234e+01 -1.02280013e+01 -1.02266811e+01 -1.02256311e+01
 -1.02252746e+01 -1.02249941e+01 -1.02238520e+01 -1.02236397e+01
 -1.02228312e+01 -1.02218538e+01 -1.02216474e+01 -1.02214487e+01
 -1.02209800e+01 -1.02208279e+01 -1.02204834e+01 -1.02202169e+01
 -1.02201647e+01 -1.02177188e+01 -1.02176626e+01 -1.02166619e+01
 -1.02165040e+01 -1.02148611e+01 -1.02123357e+01 -1.02109236e+01
 -1.02068107e+01 -1.04673322e+00 -8.74799804e-01 -8.62213879e-01
 -8.58464604e-01 -8.52002824e-01 -8.45051114e-01 -8.39854034e-01
 -8.21794022e-01 -8.12824285e-01 -8.07861176e-01 -7.98815037e-01
 -7.90396709e-01 -7.75630059e-01 -7.67399404e-01 -7.52566438e-01
 -7.41595024e-01 -7.26071702e-01 -7.12788492e-01 -7.09658497e-01
 -7.08348929e-01 -7.07008496e-01 -7.00167664e-01 -6.98509994e-01
 -6.96003338e-01 -6.90090234e-01 -6.78684706e-01 -6.52991523e-01
 -6.37940101e-01 -6.21330689e-01 -6.10601517e-01 -5.90286628e-01
 -5.80847610e-01 -5.79643403e-01 -5.74769152e-01 -5.61109324e-01
 -5.50604986e-01 -5.45954283e-01 -5.43525064e-01 -5.35005696e-01
 -5.24452954e-01 -5.11154173e-01 -5.08307421e-01 -5.03713302e-01
 -4.95796440e-01 -4.88531139e-01 -4.83672754e-01 -4.81405675e-01
 -4.74838644e-01 -4.73498469e-01 -4.64925236e-01 -4.59787845e-01
 -4.58145774e-01 -4.53366157e-01 -4.51416040e-01 -4.43135945e-01
 -4.38642926e-01 -4.34492732e-01 -4.32722663e-01 -4.31857484e-01
 -4.31471745e-01 -4.29925674e-01 -4.29312206e-01 -4.28409568e-01
 -4.27939659e-01 -4.26035386e-01 -4.23151039e-01 -4.09962449e-01
 -4.07710798e-01 -4.07257099e-01 -4.05821302e-01 -4.02127335e-01
 -3.99084488e-01 -3.97021805e-01 -3.90356497e-01 -3.89322906e-01
 -3.88214980e-01 -3.84674329e-01 -3.83281645e-01 -3.80337169e-01
 -3.77113494e-01 -3.76594677e-01 -3.73930775e-01 -3.72088316e-01
 -3.69655526e-01 -3.67134185e-01 -3.61872361e-01 -3.61027790e-01
 -3.59083800e-01 -3.56211478e-01 -3.53778661e-01 -3.52983426e-01
 -3.51317683e-01 -3.49683414e-01 -3.47133011e-01 -3.46631362e-01
 -3.45397347e-01 -3.40985127e-01 -3.37404619e-01 -3.31985066e-01
 -3.27939445e-01 -3.26594865e-01 -3.21727342e-01 -3.18820614e-01
 -3.07999960e-01 -3.02565995e-01 -2.88853439e-01 -2.87371277e-01
 -2.67149155e-01 -2.46590221e-01 -2.24701545e-01 -2.00044722e-01
 -1.68723290e-01 -9.56370360e-02 -5.60713990e-02 -2.38719359e-02
  4.65046554e-03  2.62883132e-02  2.92233577e-02  3.65844551e-02
  4.17815427e-02  4.54795235e-02  4.60326132e-02  5.09320822e-02
  5.53362695e-02  5.71376613e-02  5.87495670e-02  6.11949405e-02
  6.42084051e-02  6.80916529e-02  6.97707758e-02  7.17050944e-02
  7.27982627e-02  7.39819302e-02  7.72528904e-02  7.75679413e-02
  8.10026187e-02  8.14531896e-02  8.20306188e-02  8.48069162e-02
  9.07069341e-02  9.31416424e-02  9.42696341e-02  9.60959782e-02
  9.86882062e-02  9.92021153e-02  1.00610156e-01  1.02757615e-01
  1.07055699e-01  1.09060685e-01  1.11281782e-01  1.15134535e-01
  1.18647282e-01  1.23129459e-01  1.24655364e-01  1.25589050e-01
  1.27011002e-01  1.30019102e-01  1.31666317e-01  1.32194082e-01
  1.33467169e-01  1.35844363e-01  1.36712580e-01  1.39291189e-01
  1.41561910e-01  1.41678780e-01  1.43753974e-01  1.48037598e-01
  1.49109810e-01  1.50545004e-01  1.52758474e-01  1.53789842e-01
  1.55250516e-01  1.55630478e-01  1.57964279e-01  1.60873639e-01
  1.62720501e-01  1.64575712e-01  1.65535110e-01  1.69803858e-01
  1.70920100e-01  1.74446432e-01  1.76372049e-01  1.81004720e-01
  1.81395262e-01  1.82080894e-01  1.83024623e-01  1.85888030e-01
  1.88140873e-01  1.91301670e-01  1.91743604e-01  1.93139676e-01
  1.94993831e-01  1.95613101e-01  1.99299739e-01  2.00286783e-01
  2.03725200e-01  2.06864435e-01  2.07876030e-01  2.09763919e-01
  2.14762972e-01  2.14847497e-01  2.15879733e-01  2.18142881e-01
  2.20103944e-01  2.21658118e-01  2.23552739e-01  2.24997704e-01
  2.26945800e-01  2.28152456e-01  2.32266820e-01  2.37403483e-01
  2.38687947e-01  2.42873972e-01  2.43804170e-01  2.44849222e-01
  2.46018712e-01  2.50077665e-01  2.52326141e-01  2.54232576e-01
  2.56940922e-01  2.60689990e-01  2.64259618e-01  2.65730867e-01
  2.67732937e-01  2.71219358e-01  2.72151811e-01  2.74587539e-01
  2.75843434e-01  2.79606499e-01  2.80303053e-01  2.83339351e-01
  2.85827625e-01  2.88089785e-01  2.89357837e-01  2.91399079e-01
  2.94047215e-01  2.96384432e-01  2.98515157e-01  3.01283172e-01
  3.03149165e-01  3.06038314e-01  3.09943634e-01  3.13452191e-01
  3.14461309e-01  3.16361774e-01  3.18704592e-01  3.22827041e-01
  3.25572565e-01  3.27855318e-01  3.29428292e-01  3.29810619e-01
  3.33011214e-01  3.35726277e-01  3.37060438e-01  3.40290513e-01
  3.41166917e-01  3.42531971e-01  3.44376902e-01  3.47870512e-01
  3.49484222e-01  3.50836439e-01  3.52079292e-01  3.56915888e-01
  3.58973400e-01  3.62018315e-01  3.62754765e-01  3.65409798e-01
  3.69073541e-01  3.69946301e-01  3.70315624e-01  3.72520155e-01
  3.75370629e-01  3.76677979e-01  3.79502936e-01  3.80310305e-01
  3.82742148e-01  3.85694574e-01  3.88977373e-01  3.89789174e-01
  3.91327424e-01  3.96688933e-01  3.97864939e-01  3.98478915e-01
  4.01252389e-01  4.03094525e-01  4.04816629e-01  4.06076192e-01
  4.07657746e-01  4.09416887e-01  4.11723761e-01  4.13995472e-01
  4.14949635e-01  4.16605011e-01  4.18811395e-01  4.20134618e-01
  4.21520134e-01  4.24131195e-01  4.26405277e-01  4.27922757e-01
  4.30927881e-01  4.31697989e-01  4.32584800e-01  4.33767053e-01
  4.35172858e-01  4.36601168e-01  4.39719937e-01  4.41354918e-01
  4.42762859e-01  4.43068101e-01  4.44711374e-01  4.46925910e-01
  4.48562613e-01  4.50451134e-01  4.51953412e-01  4.53055508e-01
  4.53390735e-01  4.55201289e-01  4.55717852e-01  4.56836022e-01
  4.58584281e-01  4.60479916e-01  4.63232027e-01  4.66902096e-01
  4.67962769e-01  4.69833338e-01  4.71556086e-01  4.72515653e-01
  4.75449873e-01  4.77038656e-01  4.78779110e-01  4.79521184e-01
  4.80895580e-01  4.84009066e-01  4.84385467e-01  4.86767200e-01
  4.88486335e-01  4.90875827e-01  4.92072510e-01  4.93842181e-01
  4.94102336e-01  4.96575817e-01  4.97231191e-01  4.98284332e-01
  5.00193544e-01  5.02272094e-01  5.03524336e-01  5.06785582e-01
  5.09676887e-01  5.13738163e-01  5.14218360e-01  5.16435817e-01
  5.18267729e-01  5.20816229e-01  5.22214705e-01  5.28664256e-01
  5.29339969e-01  5.30682530e-01  5.33589527e-01  5.35941177e-01
  5.37446448e-01  5.41635922e-01  5.43456077e-01  5.48517323e-01
  5.50958524e-01  5.52823402e-01  5.53979817e-01  5.55259591e-01
  5.64133634e-01  5.66586035e-01  5.68898074e-01  5.71930220e-01
  5.75091445e-01  5.79495867e-01  5.83801885e-01  5.84935510e-01
  5.85779133e-01  5.90195714e-01  5.92419340e-01  5.93479295e-01
  5.97433820e-01  5.98988289e-01  5.99305137e-01  6.01855108e-01
  6.04678559e-01  6.07782035e-01  6.10180172e-01  6.10373613e-01
  6.18599368e-01  6.20521925e-01  6.23993349e-01  6.25991312e-01
  6.28151789e-01  6.29994826e-01  6.35269831e-01  6.38872501e-01
  6.41308413e-01  6.42367703e-01  6.45155483e-01  6.47061727e-01
  6.49630394e-01  6.49879493e-01  6.52908931e-01  6.56842504e-01
  6.61773261e-01  6.63249227e-01  6.64283763e-01  6.67786002e-01
  6.70592196e-01  6.74044325e-01  6.75171748e-01  6.78996693e-01
  6.80764408e-01  6.83165529e-01  6.87179739e-01  6.89622808e-01
  6.94180592e-01  6.96814953e-01  7.01129730e-01  7.02481162e-01
  7.07097204e-01  7.10430765e-01  7.13507999e-01  7.15743854e-01
  7.16628072e-01  7.20385221e-01  7.21615298e-01  7.25729339e-01
  7.29431559e-01  7.31816178e-01  7.34101571e-01  7.36451730e-01
  7.39856952e-01  7.43201534e-01  7.44083754e-01  7.47515069e-01
  7.50929908e-01  7.54282645e-01  7.57035684e-01  7.58999780e-01
  7.64169076e-01  7.67499671e-01  7.67717351e-01  7.70146116e-01
  7.73868936e-01  7.81256421e-01  7.83082765e-01  7.85938739e-01
  7.88557333e-01  7.93449873e-01  7.94737281e-01  8.00432772e-01
  8.01456469e-01  8.06907500e-01  8.11376391e-01  8.12823510e-01
  8.16793669e-01  8.19260179e-01  8.21967848e-01  8.26688343e-01
  8.29882958e-01  8.37299731e-01  8.38496683e-01  8.42653247e-01
  8.43572824e-01  8.50058187e-01  8.58401097e-01  8.60646627e-01
  8.69335847e-01  8.71271449e-01  8.71996146e-01  8.76687154e-01
  8.82102814e-01  8.85724579e-01  8.87380923e-01  8.90383189e-01
  8.92629755e-01  8.95811044e-01  8.96440208e-01  9.02485660e-01
  9.03341148e-01  9.07659870e-01  9.10814392e-01  9.14914177e-01
  9.18652973e-01  9.20641093e-01  9.20917819e-01  9.23809936e-01
  9.27228075e-01  9.35378229e-01  9.40527330e-01  9.41312830e-01
  9.43812709e-01  9.44580317e-01  9.50470895e-01  9.54908706e-01
  9.56897349e-01  9.58924717e-01  9.63450539e-01  9.67984968e-01
  9.71534057e-01  9.75604579e-01  9.79957347e-01  9.82517765e-01
  9.85745540e-01  9.88349413e-01  9.89018342e-01  9.90185413e-01
  9.96550096e-01  1.00012007e+00  1.00737276e+00  1.01288508e+00
  1.01849762e+00  1.01901217e+00  1.02165516e+00  1.02438664e+00
  1.03116294e+00  1.03293775e+00  1.03375865e+00  1.03737204e+00
  1.04203162e+00  1.04688082e+00  1.04862019e+00  1.05142344e+00
  1.05219541e+00  1.05510351e+00  1.06026778e+00  1.06322976e+00
  1.06533717e+00  1.06946097e+00  1.07246448e+00  1.07955553e+00
  1.08223034e+00  1.08643437e+00  1.08928117e+00  1.09358124e+00
  1.09517321e+00  1.09790851e+00  1.09979080e+00  1.10266581e+00
  1.10441927e+00  1.10837467e+00  1.11011381e+00  1.11659755e+00
  1.12295041e+00  1.12696875e+00  1.12926239e+00  1.13646014e+00
  1.13680130e+00  1.14002409e+00  1.14046481e+00  1.14835493e+00
  1.15192554e+00  1.15513546e+00  1.15812450e+00  1.16451650e+00
  1.16945222e+00  1.17534038e+00  1.17672639e+00  1.18420907e+00
  1.18766579e+00  1.18949111e+00  1.19104161e+00  1.19823527e+00
  1.20246642e+00  1.20462709e+00  1.21018715e+00  1.21114764e+00
  1.21445423e+00  1.21858856e+00  1.22422412e+00  1.22659042e+00
  1.22909129e+00  1.23356206e+00  1.23403342e+00  1.23817749e+00
  1.24252182e+00  1.24535549e+00  1.24969634e+00  1.25380339e+00
  1.25783887e+00  1.25894589e+00  1.26317165e+00  1.26885912e+00
  1.26983517e+00  1.27448874e+00  1.27606403e+00  1.27911068e+00
  1.28217590e+00  1.28567545e+00  1.28915874e+00  1.29375109e+00
  1.29566728e+00  1.30286133e+00  1.30966724e+00  1.31132169e+00
  1.31334646e+00  1.31683646e+00  1.32019808e+00  1.32149831e+00
  1.32819641e+00  1.33293757e+00  1.33575314e+00  1.34387879e+00
  1.34662574e+00  1.34898947e+00  1.35606812e+00  1.35969637e+00
  1.36417518e+00  1.36749525e+00  1.37071657e+00  1.37894687e+00
  1.37991271e+00  1.38065940e+00  1.38629776e+00  1.38841633e+00
  1.39310844e+00  1.39741878e+00  1.40076521e+00  1.40316072e+00
  1.40716914e+00  1.41662847e+00  1.42674491e+00  1.43445135e+00
  1.44023889e+00  1.44240455e+00  1.44816608e+00  1.44903456e+00
  1.45386509e+00  1.45782060e+00  1.46105681e+00  1.46283626e+00
  1.46433605e+00  1.47394759e+00  1.47635100e+00  1.48248463e+00
  1.48832908e+00  1.49258880e+00  1.50080771e+00  1.50817225e+00
  1.50946608e+00  1.51640331e+00  1.51926025e+00  1.52032409e+00
  1.52382170e+00  1.52915388e+00  1.53076325e+00  1.53535572e+00
  1.53594494e+00  1.53830339e+00  1.54009746e+00  1.54348593e+00
  1.54414013e+00  1.54600934e+00  1.54712964e+00  1.54765279e+00
  1.54963506e+00  1.55080457e+00  1.55551309e+00  1.55643205e+00
  1.55811202e+00  1.55967399e+00  1.56220406e+00  1.56429972e+00
  1.56634280e+00  1.56815372e+00  1.57276876e+00  1.57574527e+00
  1.57642970e+00  1.57834780e+00  1.58144292e+00  1.58507726e+00
  1.58847392e+00  1.58982726e+00  1.59164984e+00  1.59433253e+00
  1.60011552e+00  1.60209605e+00  1.60343451e+00  1.60587341e+00
  1.61099515e+00  1.61567829e+00  1.61630589e+00  1.61835490e+00
  1.61929461e+00  1.61967785e+00  1.62040511e+00  1.62463340e+00
  1.62647874e+00  1.62782340e+00  1.62980888e+00  1.63133834e+00
  1.63347279e+00  1.63728467e+00  1.63882824e+00  1.64111907e+00
  1.64201121e+00  1.64612446e+00  1.65073178e+00  1.65387213e+00
  1.65858772e+00  1.65883315e+00  1.66192886e+00  1.66791511e+00
  1.66858949e+00  1.67038737e+00  1.67174497e+00  1.67731310e+00
  1.67790777e+00  1.68246745e+00  1.68298921e+00  1.69283145e+00
  1.69398049e+00  1.69858141e+00  1.70247719e+00  1.70589893e+00
  1.71270373e+00  1.71473154e+00  1.71766090e+00  1.72116607e+00
  1.72907757e+00  1.73096213e+00  1.73314256e+00  1.73593578e+00
  1.74358907e+00  1.74659955e+00  1.75107077e+00  1.75578446e+00
  1.76001730e+00  1.76106443e+00  1.76898890e+00  1.77207365e+00
  1.77870717e+00  1.78160674e+00  1.78516358e+00  1.78982473e+00
  1.79829157e+00  1.80020044e+00  1.80449160e+00  1.80615003e+00
  1.81183987e+00  1.81501109e+00  1.82121236e+00  1.82600193e+00
  1.82977301e+00  1.83140447e+00  1.83566267e+00  1.84084211e+00
  1.84483409e+00  1.85086079e+00  1.85274404e+00  1.85771487e+00
  1.86672826e+00  1.86933521e+00  1.88040942e+00  1.88231357e+00
  1.88286921e+00  1.88813527e+00  1.89038865e+00  1.89267463e+00
  1.89706707e+00  1.89836010e+00  1.90602563e+00  1.90737174e+00
  1.91440211e+00  1.91517471e+00  1.92185270e+00  1.92408292e+00
  1.92587506e+00  1.93682902e+00  1.93716916e+00  1.94307404e+00
  1.94865962e+00  1.95708721e+00  1.95920711e+00  1.96788105e+00
  1.96820073e+00  1.97029518e+00  1.97393241e+00  1.97736765e+00
  1.98431182e+00  1.98795647e+00  1.99014158e+00  1.99414465e+00
  2.00217700e+00  2.00705231e+00  2.00932051e+00  2.01454260e+00
  2.01667707e+00  2.01935415e+00  2.02285360e+00  2.02582171e+00
  2.02648579e+00  2.03097951e+00  2.03434888e+00  2.03759719e+00
  2.04918978e+00  2.05099765e+00  2.05140987e+00  2.05162369e+00
  2.05604450e+00  2.06040533e+00  2.06714566e+00  2.07153524e+00
  2.07467544e+00  2.07792511e+00  2.08011535e+00  2.08453041e+00
  2.08793045e+00  2.08936578e+00  2.09098732e+00  2.09221694e+00
  2.10220770e+00  2.10662052e+00  2.11069918e+00  2.11485023e+00
  2.12290670e+00  2.12470387e+00  2.13124602e+00  2.13472376e+00
  2.14062577e+00  2.14361084e+00  2.14619169e+00  2.15773665e+00
  2.16058333e+00  2.16172487e+00  2.16293300e+00  2.16837709e+00
  2.17079749e+00  2.17287719e+00  2.17892908e+00  2.18217879e+00
  2.18577893e+00  2.18774559e+00  2.18891373e+00  2.19435926e+00
  2.19688813e+00  2.20294525e+00  2.20445973e+00  2.21304850e+00
  2.22345400e+00  2.23015930e+00  2.23231192e+00  2.24171050e+00
  2.24624487e+00  2.24860848e+00  2.25390977e+00  2.25811439e+00
  2.25953610e+00  2.26641096e+00  2.27003880e+00  2.27389614e+00
  2.28330127e+00  2.28725851e+00  2.28830741e+00  2.29184538e+00
  2.29626297e+00  2.29964542e+00  2.30114800e+00  2.30555939e+00
  2.30794755e+00  2.30937687e+00  2.31859014e+00  2.32332280e+00
  2.32440167e+00  2.32613920e+00  2.32948785e+00  2.33207455e+00
  2.33452627e+00  2.33892277e+00  2.34196394e+00  2.34478185e+00
  2.34848068e+00  2.35325711e+00  2.36357107e+00  2.36572753e+00
  2.36756929e+00  2.37410318e+00  2.37804660e+00  2.38042076e+00
  2.38281614e+00  2.38466686e+00  2.38780057e+00  2.39174251e+00
  2.39428420e+00  2.39668019e+00  2.39978149e+00  2.40510872e+00
  2.40768386e+00  2.40822955e+00  2.41069928e+00  2.41767158e+00
  2.42377829e+00  2.42614605e+00  2.42698076e+00  2.43037329e+00
  2.43263096e+00  2.43696017e+00  2.44060711e+00  2.44115365e+00
  2.44836125e+00  2.45252755e+00  2.45696552e+00  2.46156307e+00
  2.46516168e+00  2.46816858e+00  2.47031154e+00  2.47589489e+00
  2.47757814e+00  2.49045905e+00  2.49121980e+00  2.49583664e+00
  2.50289493e+00  2.50548181e+00  2.51004687e+00  2.51006393e+00
  2.51695242e+00  2.52227798e+00  2.52543277e+00  2.52733813e+00
  2.52781969e+00  2.52960452e+00  2.53167764e+00  2.53204796e+00
  2.53451879e+00  2.53692668e+00  2.53807103e+00  2.54197705e+00
  2.54353979e+00  2.54592138e+00  2.54816916e+00  2.55207876e+00
  2.55977065e+00  2.56210182e+00  2.56435686e+00  2.56608076e+00
  2.56806088e+00  2.57228575e+00  2.57398480e+00  2.57639656e+00
  2.58069161e+00  2.58504672e+00  2.58729184e+00  2.59024527e+00
  2.59157804e+00  2.59497230e+00  2.59754785e+00  2.59902371e+00
  2.60473451e+00  2.60692330e+00  2.60986040e+00  2.61100122e+00
  2.61334848e+00  2.61560845e+00  2.61814571e+00  2.61912517e+00
  2.62393008e+00  2.62644274e+00  2.62928270e+00  2.63388299e+00
  2.63763576e+00  2.63881782e+00  2.64313588e+00  2.64628179e+00
  2.64728938e+00  2.65436014e+00  2.65960977e+00  2.66317536e+00
  2.66380757e+00  2.67032633e+00  2.67678603e+00  2.68028469e+00
  2.68446054e+00  2.68644014e+00  2.69132570e+00  2.69332747e+00
  2.69929858e+00  2.70495315e+00  2.70657903e+00  2.70763006e+00
  2.71174403e+00  2.71661340e+00  2.72242503e+00  2.72385302e+00
  2.72660926e+00  2.72994725e+00  2.73317222e+00  2.73595316e+00
  2.73690813e+00  2.74245652e+00  2.74805673e+00  2.74879326e+00
  2.75272127e+00  2.75447091e+00  2.75633559e+00  2.76830632e+00
  2.77043457e+00  2.77161990e+00  2.77388059e+00  2.77485622e+00
  2.77774234e+00  2.77895465e+00  2.78350552e+00  2.78568725e+00
  2.78793493e+00  2.79109224e+00  2.79623571e+00  2.80046251e+00
  2.80246310e+00  2.80400673e+00  2.80698306e+00  2.81131131e+00
  2.81669494e+00  2.82009791e+00  2.82042753e+00  2.82569686e+00
  2.82938377e+00  2.83262987e+00  2.83812924e+00  2.84151652e+00
  2.84596809e+00  2.85195446e+00  2.85419020e+00  2.85750957e+00
  2.85824198e+00  2.85878170e+00  2.86035191e+00  2.86277118e+00
  2.86810939e+00  2.87213245e+00  2.87558565e+00  2.88165610e+00
  2.88261431e+00  2.88863501e+00  2.89026467e+00  2.89166548e+00
  2.89835550e+00  2.90092302e+00  2.90848898e+00  2.91005832e+00
  2.91232780e+00  2.91578859e+00  2.92238912e+00  2.92326424e+00
  2.92495296e+00  2.92794510e+00  2.92941263e+00  2.93153628e+00
  2.93178521e+00  2.93467243e+00  2.94234260e+00  2.95033680e+00
  2.95220808e+00  2.95287778e+00  2.95493883e+00  2.95710380e+00
  2.96519537e+00  2.97099356e+00  2.97626061e+00  2.98157719e+00
  2.99098751e+00  2.99428907e+00  2.99658736e+00  2.99934863e+00
  3.00470910e+00  3.00570921e+00  3.01056399e+00  3.01289113e+00
  3.01571272e+00  3.02101378e+00  3.02338777e+00  3.02908572e+00
  3.03202434e+00  3.03902360e+00  3.04149300e+00  3.04327301e+00
  3.04639974e+00  3.05154787e+00  3.05382099e+00  3.05614154e+00
  3.06366475e+00  3.06815980e+00  3.07157796e+00  3.07344826e+00
  3.07945815e+00  3.08131938e+00  3.08624916e+00  3.08775586e+00
  3.09010902e+00  3.09257147e+00  3.09512339e+00  3.09770957e+00
  3.10048296e+00  3.10168683e+00  3.10678404e+00  3.11113947e+00
  3.11376219e+00  3.11707833e+00  3.12075410e+00  3.12361226e+00
  3.12551051e+00  3.13180537e+00  3.13240863e+00  3.13629489e+00
  3.13784451e+00  3.14122667e+00  3.14292427e+00  3.14431450e+00
  3.14943075e+00  3.15087023e+00  3.15304788e+00  3.15693274e+00
  3.15871173e+00  3.16168274e+00  3.16495455e+00  3.16604533e+00
  3.16870747e+00  3.17321843e+00  3.17475703e+00  3.17607578e+00
  3.17956281e+00  3.18041888e+00  3.18235628e+00  3.18296292e+00
  3.18689015e+00  3.19123667e+00  3.19415972e+00  3.19691761e+00
  3.19795553e+00  3.20079404e+00  3.20300049e+00  3.20813911e+00
  3.21318284e+00  3.21489974e+00  3.21745783e+00  3.22011797e+00
  3.22486689e+00  3.22698988e+00  3.23046227e+00  3.23281365e+00
  3.23463015e+00  3.23931564e+00  3.24285645e+00  3.24579824e+00
  3.24812494e+00  3.25030488e+00  3.25388832e+00  3.25701337e+00
  3.25827597e+00  3.26297166e+00  3.26563259e+00  3.26823161e+00
  3.27113829e+00  3.27333298e+00  3.27354346e+00  3.27539669e+00
  3.27802143e+00  3.28359106e+00  3.28611867e+00  3.29042234e+00
  3.29320560e+00  3.29604237e+00  3.29702962e+00  3.30058556e+00
  3.30292240e+00  3.30309095e+00  3.30881057e+00  3.31229229e+00
  3.31656493e+00  3.32050170e+00  3.32343627e+00  3.32709824e+00
  3.32995715e+00  3.33245819e+00  3.33615634e+00  3.33796738e+00
  3.34096034e+00  3.34380402e+00  3.34481471e+00  3.34547078e+00
  3.35041969e+00  3.35392642e+00  3.35496861e+00  3.35634921e+00
  3.36070006e+00  3.36399687e+00  3.36704627e+00  3.36958990e+00
  3.37131000e+00  3.37290547e+00  3.37533279e+00  3.37642773e+00
  3.37931018e+00  3.38395105e+00  3.38542369e+00  3.39142079e+00
  3.39598658e+00  3.39816565e+00  3.40044925e+00  3.40321266e+00
  3.40599467e+00  3.40766002e+00  3.40911285e+00  3.41121070e+00
  3.41272224e+00  3.42045170e+00  3.42262926e+00  3.42421448e+00
  3.43164677e+00  3.43325472e+00  3.43862956e+00  3.44212066e+00
  3.44541291e+00  3.44698827e+00  3.44865257e+00  3.45228908e+00
  3.45654020e+00  3.45951025e+00  3.46568059e+00  3.46820062e+00
  3.46962498e+00  3.47586502e+00  3.48040637e+00  3.48644691e+00
  3.48897687e+00  3.49394380e+00  3.49620450e+00  3.49835840e+00
  3.50406078e+00  3.50987198e+00  3.51200412e+00  3.51452869e+00
  3.51675964e+00  3.52072444e+00  3.52309973e+00  3.52591624e+00
  3.52990879e+00  3.53322593e+00  3.53396894e+00  3.53631232e+00
  3.53787358e+00  3.54498938e+00  3.55014700e+00  3.55332174e+00
  3.55439560e+00  3.56041230e+00  3.56299418e+00  3.56528030e+00
  3.57038906e+00  3.57770719e+00  3.57959945e+00  3.58315136e+00
  3.58546568e+00  3.58695430e+00  3.59361666e+00  3.59614234e+00
  3.59873055e+00  3.59952393e+00  3.60415846e+00  3.61073745e+00
  3.61523386e+00  3.61589620e+00  3.62041998e+00  3.62560088e+00
  3.62695913e+00  3.63061085e+00  3.63387990e+00  3.63948699e+00
  3.63977476e+00  3.64639856e+00  3.65315528e+00  3.65579892e+00
  3.65684239e+00  3.66464770e+00  3.67025329e+00  3.67180921e+00
  3.67897500e+00  3.68358288e+00  3.68542982e+00  3.68932851e+00
  3.70153213e+00  3.70760788e+00  3.70944339e+00  3.71786663e+00
  3.72064363e+00  3.72263442e+00  3.72422236e+00  3.72732410e+00
  3.73261378e+00  3.73592133e+00  3.74286454e+00  3.75203602e+00
  3.75469147e+00  3.76169348e+00  3.76382048e+00  3.77445768e+00
  3.77781286e+00  3.77944001e+00  3.78169775e+00  3.78451591e+00
  3.79132586e+00  3.79203634e+00  3.79983529e+00  3.81133725e+00
  3.81214655e+00  3.81881674e+00  3.82724091e+00  3.83392822e+00
  3.83669444e+00  3.83932893e+00  3.84260014e+00  3.85477746e+00
  3.85886876e+00  3.85956275e+00  3.86672308e+00  3.87287733e+00
  3.88140712e+00  3.89061863e+00  3.89453318e+00  3.89743340e+00
  3.89906702e+00  3.90780974e+00  3.90831372e+00  3.91927478e+00
  3.92587416e+00  3.92830924e+00  3.93302311e+00  3.94180914e+00
  3.94484255e+00  3.95225610e+00  3.95438560e+00  3.95970334e+00
  3.96647132e+00  3.96798072e+00  3.97467268e+00  3.97957506e+00
  3.98030337e+00  3.98415399e+00  3.99115197e+00  3.99222894e+00
  4.00248948e+00  4.00724595e+00  4.01003540e+00  4.01661507e+00
  4.01789287e+00  4.02317850e+00  4.02743394e+00  4.03538253e+00
  4.03954691e+00  4.05240763e+00  4.05280813e+00  4.05494837e+00
  4.06340931e+00  4.06628266e+00  4.07440988e+00  4.08856386e+00
  4.09139553e+00  4.09728693e+00  4.09880381e+00  4.10765096e+00
  4.11025523e+00  4.12086626e+00  4.12273100e+00  4.13857356e+00
  4.14216204e+00  4.14493881e+00  4.15139921e+00  4.15184253e+00
  4.15566451e+00  4.16737008e+00  4.17659020e+00  4.18038633e+00
  4.19072243e+00  4.19578949e+00  4.21066193e+00  4.21797670e+00
  4.22567273e+00  4.22881708e+00  4.23323767e+00  4.24338937e+00
  4.24796971e+00  4.25344208e+00  4.25514276e+00  4.25666521e+00
  4.26450110e+00  4.26777888e+00  4.26806601e+00  4.27400820e+00
  4.28425200e+00  4.28809401e+00  4.29115067e+00  4.29881193e+00
  4.30426476e+00  4.30742644e+00  4.30947653e+00  4.31371834e+00
  4.31776913e+00  4.32277123e+00  4.32683084e+00  4.33064237e+00
  4.33776985e+00  4.34664142e+00  4.35038544e+00  4.35450161e+00
  4.35690315e+00  4.36707612e+00  4.37833766e+00  4.38331916e+00
  4.38900465e+00  4.39454648e+00  4.40136623e+00  4.40456352e+00
  4.41172357e+00  4.41810523e+00  4.42059235e+00  4.42375021e+00
  4.42583013e+00  4.42835999e+00  4.43471093e+00  4.43865862e+00
  4.45056268e+00  4.45361754e+00  4.45795628e+00  4.46525351e+00
  4.47007781e+00  4.47284502e+00  4.48262208e+00  4.48653759e+00
  4.48809916e+00  4.49107584e+00  4.49715122e+00  4.49837153e+00
  4.50229819e+00  4.51184104e+00  4.52556877e+00  4.52850264e+00
  4.53612621e+00  4.54475459e+00  4.54610954e+00  4.55168655e+00
  4.55855330e+00  4.56872939e+00  4.58364656e+00  4.59847909e+00
  4.59901703e+00  4.60695886e+00  4.61471831e+00  4.62330888e+00
  4.62883999e+00  4.63539393e+00  4.64663149e+00  4.64837757e+00
  4.65305091e+00  4.66189950e+00  4.66750524e+00  4.67034255e+00
  4.67770129e+00  4.69223352e+00  4.70568433e+00  4.70659762e+00
  4.70852999e+00  4.71639827e+00  4.72511163e+00  4.74337489e+00
  4.75065169e+00  4.75152084e+00  4.76299352e+00  4.78576219e+00
  4.79020982e+00  4.79935822e+00  4.81359533e+00  4.82375977e+00
  4.83005459e+00  4.84592988e+00  4.85616292e+00  4.86107225e+00
  4.87550336e+00  4.88338083e+00  4.89639978e+00  4.90421578e+00
  4.91144850e+00  4.91815142e+00  4.92765753e+00  4.93118992e+00
  4.94239180e+00  4.96302433e+00  4.97163322e+00  4.97886689e+00
  4.98752046e+00  5.00440536e+00  5.01345989e+00  5.03935646e+00
  5.04182139e+00  5.05867900e+00  5.07640846e+00  5.09278328e+00
  5.11113072e+00  5.11602075e+00  5.12362812e+00  5.13811909e+00
  5.14539754e+00  5.14959940e+00  5.17922739e+00  5.18373721e+00
  5.19216543e+00  5.19923765e+00  5.21690716e+00  5.23207441e+00
  5.23688154e+00  5.25296703e+00  5.28095784e+00  5.28699424e+00
  5.31688398e+00  5.32774703e+00  5.33028724e+00  5.35987737e+00
  5.36125711e+00  5.39070938e+00  5.39665013e+00  5.44079598e+00
  5.44387529e+00  5.48888503e+00  5.52501836e+00  5.53577739e+00
  5.57068681e+00  5.59185255e+00  5.63617540e+00  5.65454270e+00
  5.67085325e+00  5.78466522e+00  5.79393455e+00  5.93799031e+00
  6.30009489e+00  6.53626463e+00  6.78151888e+00  6.87855493e+00
  7.04397876e+00  7.20284611e+00  2.23536626e+01  2.24052354e+01
  2.24131923e+01  2.24295901e+01  2.24506026e+01  2.24573004e+01
  2.24659397e+01  2.24736264e+01  2.24788135e+01  2.24904810e+01
  2.25045264e+01  2.25327575e+01  2.25543447e+01  2.25761377e+01
  2.25849400e+01  2.25984408e+01  2.26105157e+01  2.26251530e+01
  2.26446342e+01  2.26613265e+01  2.26710146e+01  2.26728584e+01
  2.26797547e+01  2.27099623e+01  2.27256195e+01  2.27580354e+01
  2.27682576e+01  2.27778549e+01  2.28055453e+01  2.28166174e+01
  2.28413005e+01  2.28631551e+01  2.29093617e+01  2.29198601e+01
  2.30582784e+01  2.30914540e+01  2.31323164e+01  2.31673540e+01
  2.31848305e+01  2.33172022e+01  4.41890668e+01]
nelec by numeric integration = 306.00012754998227
    CPU time for vxc    480.78 sec, wall time     28.00 sec
    CPU time for df vj and vk   2291.38 sec, wall time    158.03 sec
E1 = -9514.629160038665  Ecoul = 4451.550377155983  Exc = -245.1772234116316
cycle= 2 E= -1632.88537240854  delta_E= 1.33e-09  |g|= 7.23e-05  |ddm|= 0.000108
    CPU time for cycle= 2   2792.23 sec, wall time    188.12 sec
  HOMO = -0.168723632313199  LUMO = -0.0956376069574619
  mo_energy =
[-1.92030449e+01 -1.02855458e+01 -1.02423494e+01 -1.02422320e+01
 -1.02419474e+01 -1.02397978e+01 -1.02395458e+01 -1.02387166e+01
 -1.02315844e+01 -1.02313681e+01 -1.02312372e+01 -1.02307085e+01
 -1.02301152e+01 -1.02292698e+01 -1.02287204e+01 -1.02283141e+01
 -1.02282249e+01 -1.02279978e+01 -1.02266826e+01 -1.02256288e+01
 -1.02252838e+01 -1.02249879e+01 -1.02238522e+01 -1.02236358e+01
 -1.02228257e+01 -1.02218532e+01 -1.02216438e+01 -1.02214504e+01
 -1.02209854e+01 -1.02208269e+01 -1.02204811e+01 -1.02202168e+01
 -1.02201654e+01 -1.02177198e+01 -1.02176631e+01 -1.02166625e+01
 -1.02165043e+01 -1.02148611e+01 -1.02123367e+01 -1.02109217e+01
 -1.02068093e+01 -1.04673229e+00 -8.74798284e-01 -8.62215518e-01
 -8.58462758e-01 -8.52004556e-01 -8.45050022e-01 -8.39854224e-01
 -8.21794372e-01 -8.12824796e-01 -8.07860886e-01 -7.98814544e-01
 -7.90396814e-01 -7.75630230e-01 -7.67399648e-01 -7.52566775e-01
 -7.41593701e-01 -7.26072501e-01 -7.12788929e-01 -7.09659199e-01
 -7.08346894e-01 -7.07008874e-01 -7.00166320e-01 -6.98508741e-01
 -6.96003956e-01 -6.90090017e-01 -6.78684854e-01 -6.52992189e-01
 -6.37939976e-01 -6.21331036e-01 -6.10601778e-01 -5.90286363e-01
 -5.80847526e-01 -5.79643260e-01 -5.74769806e-01 -5.61109013e-01
 -5.50604830e-01 -5.45953650e-01 -5.43524652e-01 -5.35005744e-01
 -5.24453177e-01 -5.11153094e-01 -5.08307517e-01 -5.03714546e-01
 -4.95796096e-01 -4.88531061e-01 -4.83672573e-01 -4.81405056e-01
 -4.74838485e-01 -4.73499141e-01 -4.64924689e-01 -4.59787384e-01
 -4.58145924e-01 -4.53366301e-01 -4.51416736e-01 -4.43135350e-01
 -4.38642423e-01 -4.34491810e-01 -4.32722365e-01 -4.31857087e-01
 -4.31470034e-01 -4.29926053e-01 -4.29314642e-01 -4.28408845e-01
 -4.27939466e-01 -4.26035195e-01 -4.23151427e-01 -4.09961764e-01
 -4.07710713e-01 -4.07257132e-01 -4.05821134e-01 -4.02126809e-01
 -3.99084227e-01 -3.97022223e-01 -3.90356525e-01 -3.89323808e-01
 -3.88215122e-01 -3.84674102e-01 -3.83281834e-01 -3.80337171e-01
 -3.77114025e-01 -3.76594220e-01 -3.73930616e-01 -3.72087384e-01
 -3.69655377e-01 -3.67134132e-01 -3.61872322e-01 -3.61027561e-01
 -3.59083223e-01 -3.56212236e-01 -3.53777823e-01 -3.52985200e-01
 -3.51318140e-01 -3.49682406e-01 -3.47135471e-01 -3.46629796e-01
 -3.45397127e-01 -3.40985124e-01 -3.37404295e-01 -3.31985174e-01
 -3.27939165e-01 -3.26594700e-01 -3.21727420e-01 -3.18819690e-01
 -3.07998719e-01 -3.02564940e-01 -2.88853689e-01 -2.87370657e-01
 -2.67148947e-01 -2.46589798e-01 -2.24701477e-01 -2.00044448e-01
 -1.68723632e-01 -9.56376070e-02 -5.60712504e-02 -2.38719701e-02
  4.65030911e-03  2.62882802e-02  2.92236868e-02  3.65852639e-02
  4.17810588e-02  4.54801043e-02  4.60327343e-02  5.09316514e-02
  5.53367174e-02  5.71369774e-02  5.87497809e-02  6.11950281e-02
  6.42079769e-02  6.80909070e-02  6.97718327e-02  7.17049075e-02
  7.27987080e-02  7.39821043e-02  7.72537246e-02  7.75686257e-02
  8.10039005e-02  8.14534846e-02  8.20307830e-02  8.48070039e-02
  9.07067841e-02  9.31422893e-02  9.42696259e-02  9.60963653e-02
  9.86887498e-02  9.91981641e-02  1.00609817e-01  1.02758507e-01
  1.07055774e-01  1.09060649e-01  1.11282675e-01  1.15134326e-01
  1.18646837e-01  1.23129512e-01  1.24655210e-01  1.25588846e-01
  1.27010989e-01  1.30019147e-01  1.31666044e-01  1.32194062e-01
  1.33466161e-01  1.35844514e-01  1.36712601e-01  1.39290922e-01
  1.41562616e-01  1.41677996e-01  1.43754459e-01  1.48037561e-01
  1.49109629e-01  1.50545655e-01  1.52758323e-01  1.53789995e-01
  1.55250280e-01  1.55631025e-01  1.57964866e-01  1.60874225e-01
  1.62720883e-01  1.64576158e-01  1.65533986e-01  1.69804961e-01
  1.70920120e-01  1.74446959e-01  1.76371906e-01  1.81004590e-01
  1.81395989e-01  1.82081181e-01  1.83024377e-01  1.85887294e-01
  1.88140787e-01  1.91301581e-01  1.91743881e-01  1.93139553e-01
  1.94994293e-01  1.95613538e-01  1.99298382e-01  2.00286770e-01
  2.03725743e-01  2.06864483e-01  2.07876912e-01  2.09764153e-01
  2.14762879e-01  2.14847420e-01  2.15880601e-01  2.18142914e-01
  2.20104034e-01  2.21659070e-01  2.23550852e-01  2.24997999e-01
  2.26945785e-01  2.28153809e-01  2.32266457e-01  2.37402577e-01
  2.38687928e-01  2.42874435e-01  2.43804071e-01  2.44849759e-01
  2.46019377e-01  2.50077278e-01  2.52325872e-01  2.54230852e-01
  2.56940572e-01  2.60689928e-01  2.64259341e-01  2.65732292e-01
  2.67732732e-01  2.71220352e-01  2.72151693e-01  2.74587460e-01
  2.75843711e-01  2.79606429e-01  2.80302823e-01  2.83339428e-01
  2.85827962e-01  2.88089714e-01  2.89358071e-01  2.91398252e-01
  2.94048268e-01  2.96384705e-01  2.98514918e-01  3.01282567e-01
  3.03149085e-01  3.06038063e-01  3.09943964e-01  3.13452401e-01
  3.14461307e-01  3.16361781e-01  3.18704411e-01  3.22826746e-01
  3.25573295e-01  3.27855019e-01  3.29428693e-01  3.29811131e-01
  3.33010819e-01  3.35726073e-01  3.37060376e-01  3.40290556e-01
  3.41167425e-01  3.42532661e-01  3.44376352e-01  3.47870371e-01
  3.49484892e-01  3.50836305e-01  3.52079407e-01  3.56915638e-01
  3.58972916e-01  3.62018508e-01  3.62755338e-01  3.65409823e-01
  3.69072863e-01  3.69946042e-01  3.70315833e-01  3.72520223e-01
  3.75370572e-01  3.76677644e-01  3.79503166e-01  3.80310865e-01
  3.82741966e-01  3.85694716e-01  3.88977538e-01  3.89789110e-01
  3.91328093e-01  3.96688740e-01  3.97865353e-01  3.98478693e-01
  4.01252925e-01  4.03094068e-01  4.04816225e-01  4.06076136e-01
  4.07657577e-01  4.09416870e-01  4.11723050e-01  4.13995669e-01
  4.14949247e-01  4.16604939e-01  4.18811423e-01  4.20134576e-01
  4.21520940e-01  4.24131252e-01  4.26404949e-01  4.27922973e-01
  4.30927873e-01  4.31698313e-01  4.32584515e-01  4.33767144e-01
  4.35173200e-01  4.36600927e-01  4.39720155e-01  4.41354756e-01
  4.42763192e-01  4.43067799e-01  4.44711231e-01  4.46926230e-01
  4.48562820e-01  4.50451165e-01  4.51953897e-01  4.53055848e-01
  4.53390889e-01  4.55201577e-01  4.55718557e-01  4.56836047e-01
  4.58584294e-01  4.60479913e-01  4.63231937e-01  4.66902038e-01
  4.67963130e-01  4.69833504e-01  4.71556502e-01  4.72515759e-01
  4.75450534e-01  4.77038834e-01  4.78779500e-01  4.79521876e-01
  4.80895317e-01  4.84009475e-01  4.84385021e-01  4.86765769e-01
  4.88485513e-01  4.90875968e-01  4.92073498e-01  4.93841357e-01
  4.94102750e-01  4.96576458e-01  4.97231212e-01  4.98284317e-01
  5.00193718e-01  5.02272386e-01  5.03524829e-01  5.06786220e-01
  5.09676994e-01  5.13738157e-01  5.14218000e-01  5.16436770e-01
  5.18267656e-01  5.20816831e-01  5.22213800e-01  5.28665473e-01
  5.29340234e-01  5.30682358e-01  5.33590514e-01  5.35941244e-01
  5.37446463e-01  5.41635096e-01  5.43456995e-01  5.48516955e-01
  5.50959265e-01  5.52823421e-01  5.53980865e-01  5.55259725e-01
  5.64133433e-01  5.66585584e-01  5.68898301e-01  5.71930572e-01
  5.75091551e-01  5.79496187e-01  5.83801220e-01  5.84935555e-01
  5.85778911e-01  5.90195499e-01  5.92419262e-01  5.93480010e-01
  5.97433938e-01  5.98988427e-01  5.99305146e-01  6.01855361e-01
  6.04678304e-01  6.07782103e-01  6.10180322e-01  6.10374264e-01
  6.18599573e-01  6.20522531e-01  6.23992768e-01  6.25991377e-01
[...]
  2.47757879e+00  2.49045905e+00  2.49122082e+00  2.49583790e+00
  2.50289524e+00  2.50548242e+00  2.51004553e+00  2.51006514e+00
  2.51695213e+00  2.52227824e+00  2.52543331e+00  2.52733802e+00
  2.52782094e+00  2.52960589e+00  2.53167558e+00  2.53204771e+00
  2.53451852e+00  2.53692534e+00  2.53807070e+00  2.54197773e+00
  2.54354064e+00  2.54592151e+00  2.54816765e+00  2.55207919e+00
  2.55977062e+00  2.56210275e+00  2.56435683e+00  2.56608066e+00
  2.56806200e+00  2.57228543e+00  2.57398520e+00  2.57639613e+00
  2.58069150e+00  2.58504625e+00  2.58729162e+00  2.59024574e+00
  2.59157786e+00  2.59497350e+00  2.59754748e+00  2.59902464e+00
  2.60473508e+00  2.60692205e+00  2.60985931e+00  2.61100153e+00
  2.61334756e+00  2.61560758e+00  2.61814632e+00  2.61912548e+00
  2.62392899e+00  2.62644273e+00  2.62928253e+00  2.63388343e+00
  2.63763552e+00  2.63881667e+00  2.64313638e+00  2.64628218e+00
  2.64728898e+00  2.65436090e+00  2.65960904e+00  2.66317636e+00
  2.66380724e+00  2.67032710e+00  2.67678563e+00  2.68028501e+00
  2.68446125e+00  2.68643928e+00  2.69132575e+00  2.69332717e+00
  2.69929858e+00  2.70495272e+00  2.70657836e+00  2.70762951e+00
  2.71174415e+00  2.71661350e+00  2.72242532e+00  2.72385032e+00
  2.72660882e+00  2.72994930e+00  2.73317285e+00  2.73595389e+00
  2.73690905e+00  2.74245735e+00  2.74805639e+00  2.74879391e+00
  2.75272190e+00  2.75447144e+00  2.75633550e+00  2.76830562e+00
  2.77043432e+00  2.77162045e+00  2.77387989e+00  2.77485686e+00
  2.77774069e+00  2.77895494e+00  2.78350455e+00  2.78568725e+00
  2.78793593e+00  2.79109318e+00  2.79623519e+00  2.80046176e+00
  2.80246347e+00  2.80400201e+00  2.80698225e+00  2.81131101e+00
  2.81669454e+00  2.82009873e+00  2.82042856e+00  2.82569682e+00
  2.82938448e+00  2.83263003e+00  2.83812965e+00  2.84151751e+00
  2.84596942e+00  2.85195396e+00  2.85418994e+00  2.85751071e+00
  2.85824280e+00  2.85878217e+00  2.86035198e+00  2.86277227e+00
  2.86811043e+00  2.87213179e+00  2.87558594e+00  2.88165562e+00
  2.88261369e+00  2.88863368e+00  2.89026233e+00  2.89166573e+00
  2.89835494e+00  2.90092390e+00  2.90848976e+00  2.91005961e+00
  2.91232753e+00  2.91578807e+00  2.92238945e+00  2.92326393e+00
  2.92495291e+00  2.92794456e+00  2.92941367e+00  2.93153723e+00
  2.93178593e+00  2.93467245e+00  2.94234218e+00  2.95033597e+00
  2.95220658e+00  2.95287846e+00  2.95493813e+00  2.95710436e+00
  2.96519470e+00  2.97099415e+00  2.97626101e+00  2.98157650e+00
  2.99098692e+00  2.99428874e+00  2.99658736e+00  2.99934944e+00
  3.00470861e+00  3.00570965e+00  3.01056405e+00  3.01289122e+00
  3.01571097e+00  3.02101393e+00  3.02338818e+00  3.02908444e+00
  3.03202405e+00  3.03902379e+00  3.04149234e+00  3.04327335e+00
  3.04639934e+00  3.05154740e+00  3.05382153e+00  3.05614073e+00
  3.06366531e+00  3.06815856e+00  3.07157827e+00  3.07344613e+00
  3.07945924e+00  3.08131966e+00  3.08624911e+00  3.08775726e+00
  3.09010851e+00  3.09257172e+00  3.09512231e+00  3.09770897e+00
  3.10048200e+00  3.10168733e+00  3.10678502e+00  3.11114006e+00
  3.11376218e+00  3.11707780e+00  3.12075460e+00  3.12361212e+00
  3.12551099e+00  3.13180507e+00  3.13240943e+00  3.13629423e+00
  3.13784526e+00  3.14122489e+00  3.14292409e+00  3.14431517e+00
  3.14943117e+00  3.15087125e+00  3.15304776e+00  3.15693319e+00
  3.15871155e+00  3.16168180e+00  3.16495568e+00  3.16604489e+00
  3.16870694e+00  3.17321781e+00  3.17475703e+00  3.17607603e+00
  3.17956240e+00  3.18041932e+00  3.18235662e+00  3.18296249e+00
  3.18688960e+00  3.19123560e+00  3.19415986e+00  3.19691744e+00
  3.19795513e+00  3.20079379e+00  3.20300164e+00  3.20813839e+00
  3.21318293e+00  3.21490101e+00  3.21745876e+00  3.22011776e+00
  3.22486711e+00  3.22699024e+00  3.23046340e+00  3.23281404e+00
  3.23463017e+00  3.23931589e+00  3.24285640e+00  3.24579750e+00
  3.24812538e+00  3.25030396e+00  3.25388912e+00  3.25701266e+00
  3.25827545e+00  3.26297232e+00  3.26563273e+00  3.26823215e+00
  3.27113811e+00  3.27333317e+00  3.27354304e+00  3.27539695e+00
  3.27802122e+00  3.28359034e+00  3.28611749e+00  3.29042297e+00
  3.29320663e+00  3.29604222e+00  3.29703117e+00  3.30058617e+00
  3.30292306e+00  3.30309172e+00  3.30881051e+00  3.31229085e+00
  3.31656434e+00  3.32050300e+00  3.32343661e+00  3.32709812e+00
  3.32995797e+00  3.33245934e+00  3.33615646e+00  3.33796735e+00
  3.34096126e+00  3.34380286e+00  3.34481471e+00  3.34546868e+00
  3.35041980e+00  3.35392575e+00  3.35496885e+00  3.35634988e+00
  3.36070073e+00  3.36399727e+00  3.36704728e+00  3.36958947e+00
  3.37130998e+00  3.37290608e+00  3.37533143e+00  3.37642771e+00
  3.37930967e+00  3.38395223e+00  3.38542372e+00  3.39142199e+00
  3.39598623e+00  3.39816520e+00  3.40044996e+00  3.40321285e+00
  3.40599497e+00  3.40766003e+00  3.40911265e+00  3.41121034e+00
  3.41272207e+00  3.42045199e+00  3.42262896e+00  3.42421494e+00
  3.43164729e+00  3.43325543e+00  3.43862968e+00  3.44212069e+00
  3.44541296e+00  3.44698803e+00  3.44865217e+00  3.45228841e+00
  3.45653977e+00  3.45951072e+00  3.46568121e+00  3.46819974e+00
  3.46962489e+00  3.47586458e+00  3.48040542e+00  3.48644665e+00
  3.48897644e+00  3.49394351e+00  3.49620514e+00  3.49835927e+00
  3.50406083e+00  3.50987290e+00  3.51200366e+00  3.51452948e+00
  3.51675873e+00  3.52072395e+00  3.52310046e+00  3.52591528e+00
  3.52990847e+00  3.53322667e+00  3.53396900e+00  3.53631230e+00
  3.53787320e+00  3.54498909e+00  3.55014764e+00  3.55332170e+00
  3.55439514e+00  3.56041288e+00  3.56299370e+00  3.56528010e+00
  3.57038856e+00  3.57770716e+00  3.57959851e+00  3.58315094e+00
  3.58546622e+00  3.58695475e+00  3.59361588e+00  3.59614223e+00
  3.59873046e+00  3.59952407e+00  3.60415849e+00  3.61073727e+00
  3.61523318e+00  3.61589557e+00  3.62041968e+00  3.62560178e+00
  3.62695889e+00  3.63061049e+00  3.63387972e+00  3.63948801e+00
  3.63977513e+00  3.64639813e+00  3.65315620e+00  3.65579990e+00
  3.65684312e+00  3.66464738e+00  3.67025256e+00  3.67180866e+00
  3.67897494e+00  3.68358210e+00  3.68543063e+00  3.68932787e+00
  3.70153156e+00  3.70760809e+00  3.70944382e+00  3.71786703e+00
  3.72064342e+00  3.72263423e+00  3.72422313e+00  3.72732384e+00
  3.73261331e+00  3.73592113e+00  3.74286552e+00  3.75203559e+00
  3.75469173e+00  3.76169323e+00  3.76382098e+00  3.77445815e+00
  3.77781184e+00  3.77944088e+00  3.78169904e+00  3.78451649e+00
  3.79132536e+00  3.79203703e+00  3.79983555e+00  3.81133744e+00
  3.81214702e+00  3.81881648e+00  3.82724029e+00  3.83392745e+00
  3.83669524e+00  3.83932955e+00  3.84259892e+00  3.85477830e+00
  3.85886796e+00  3.85956234e+00  3.86672408e+00  3.87287555e+00
  3.88140799e+00  3.89061880e+00  3.89453326e+00  3.89743376e+00
  3.89906713e+00  3.90780973e+00  3.90831457e+00  3.91927536e+00
  3.92587398e+00  3.92830872e+00  3.93302278e+00  3.94181042e+00
  3.94484234e+00  3.95225728e+00  3.95438565e+00  3.95970291e+00
  3.96647028e+00  3.96798237e+00  3.97467259e+00  3.97957552e+00
  3.98030312e+00  3.98415466e+00  3.99115150e+00  3.99222904e+00
  4.00248969e+00  4.00724663e+00  4.01003382e+00  4.01661505e+00
  4.01789268e+00  4.02317801e+00  4.02743425e+00  4.03538271e+00
  4.03954693e+00  4.05240749e+00  4.05280786e+00  4.05494889e+00
  4.06340890e+00  4.06628269e+00  4.07441025e+00  4.08856493e+00
  4.09139540e+00  4.09728673e+00  4.09880457e+00  4.10765222e+00
  4.11025312e+00  4.12086596e+00  4.12273136e+00  4.13857442e+00
  4.14216150e+00  4.14493988e+00  4.15139785e+00  4.15184317e+00
  4.15566385e+00  4.16736937e+00  4.17659074e+00  4.18038781e+00
  4.19072194e+00  4.19578799e+00  4.21065959e+00  4.21797629e+00
  4.22567276e+00  4.22881747e+00  4.23323839e+00  4.24339086e+00
  4.24797131e+00  4.25344267e+00  4.25514247e+00  4.25666458e+00
  4.26449997e+00  4.26777834e+00  4.26806684e+00  4.27400750e+00
  4.28425315e+00  4.28809463e+00  4.29115102e+00  4.29881268e+00
  4.30426599e+00  4.30742611e+00  4.30947639e+00  4.31371850e+00
  4.31776895e+00  4.32277172e+00  4.32683064e+00  4.33064227e+00
  4.33776916e+00  4.34664215e+00  4.35038534e+00  4.35450216e+00
  4.35690405e+00  4.36707632e+00  4.37833864e+00  4.38331984e+00
  4.38900270e+00  4.39454606e+00  4.40136585e+00  4.40456408e+00
  4.41172349e+00  4.41810255e+00  4.42059291e+00  4.42375102e+00
  4.42583008e+00  4.42835979e+00  4.43471140e+00  4.43865826e+00
  4.45056318e+00  4.45361796e+00  4.45795696e+00  4.46525415e+00
  4.47007781e+00  4.47284456e+00  4.48262189e+00  4.48653849e+00
  4.48809946e+00  4.49107598e+00  4.49715289e+00  4.49837181e+00
  4.50229720e+00  4.51184122e+00  4.52556994e+00  4.52850196e+00
  4.53612508e+00  4.54475443e+00  4.54611052e+00  4.55168693e+00
  4.55855399e+00  4.56872899e+00  4.58364605e+00  4.59847933e+00
  4.59901731e+00  4.60695919e+00  4.61471818e+00  4.62330907e+00
  4.62883972e+00  4.63539400e+00  4.64663117e+00  4.64837674e+00
  4.65305163e+00  4.66189871e+00  4.66750513e+00  4.67034294e+00
  4.67770182e+00  4.69223361e+00  4.70568365e+00  4.70659684e+00
  4.70853134e+00  4.71639819e+00  4.72511168e+00  4.74337613e+00
  4.75065228e+00  4.75152025e+00  4.76299385e+00  4.78576180e+00
  4.79020971e+00  4.79935741e+00  4.81359450e+00  4.82376064e+00
  4.83005375e+00  4.84593066e+00  4.85616352e+00  4.86107254e+00
  4.87550401e+00  4.88338148e+00  4.89639990e+00  4.90421551e+00
  4.91144858e+00  4.91815099e+00  4.92765500e+00  4.93118967e+00
  4.94239178e+00  4.96302558e+00  4.97163299e+00  4.97886612e+00
  4.98752203e+00  5.00440645e+00  5.01345953e+00  5.03935589e+00
  5.04182264e+00  5.05867744e+00  5.07640856e+00  5.09278327e+00
  5.11113086e+00  5.11602126e+00  5.12362896e+00  5.13812029e+00
  5.14539686e+00  5.14959908e+00  5.17922746e+00  5.18373762e+00
  5.19216581e+00  5.19923908e+00  5.21690737e+00  5.23207538e+00
  5.23688265e+00  5.25296516e+00  5.28095830e+00  5.28699521e+00
  5.31688456e+00  5.32774761e+00  5.33028783e+00  5.35987447e+00
  5.36125682e+00  5.39071109e+00  5.39665014e+00  5.44079468e+00
  5.44387552e+00  5.48888451e+00  5.52501964e+00  5.53577867e+00
  5.57068799e+00  5.59185211e+00  5.63617724e+00  5.65454387e+00
  5.67085168e+00  5.78466636e+00  5.79393568e+00  5.93799138e+00
  6.30009652e+00  6.53626671e+00  6.78152083e+00  6.87855689e+00
  7.04398069e+00  7.20284781e+00  2.23536622e+01  2.24052344e+01
  2.24131920e+01  2.24295907e+01  2.24506024e+01  2.24573006e+01
  2.24659422e+01  2.24736275e+01  2.24788092e+01  2.24904801e+01
  2.25045274e+01  2.25327577e+01  2.25543447e+01  2.25761358e+01
  2.25849394e+01  2.25984395e+01  2.26105154e+01  2.26251521e+01
  2.26446342e+01  2.26613260e+01  2.26710135e+01  2.26728582e+01
  2.26797540e+01  2.27099620e+01  2.27256188e+01  2.27580340e+01
  2.27682596e+01  2.27778572e+01  2.28055444e+01  2.28166179e+01
  2.28413015e+01  2.28631571e+01  2.29093591e+01  2.29198626e+01
  2.30582776e+01  2.30914576e+01  2.31323141e+01  2.31673558e+01
  2.31848282e+01  2.33172039e+01  4.41890706e+01]
nelec by numeric integration = 306.0001275495319
    CPU time for vxc    475.58 sec, wall time     26.83 sec
    CPU time for df vj and vk   2269.80 sec, wall time    154.34 sec
E1 = -9514.629079071941  Ecoul = 4451.550295222803  Exc = -245.17722244680263
Extra cycle  E= -1632.88537241016  delta_E= 1.18e-11  |g|= 1.13e-06  |ddm|= 1.87e-06
    CPU time for scf_cycle  18353.77 sec, wall time   1305.21 sec
    CPU time for SCF  18353.77 sec, wall time   1305.21 sec
converged SCF energy = -1632.88537241016
SCF Done after 1305.26 seconds
after SCF memory used: 42.31 GB
Converting <class 'pyscf.df.df_jk.density_fit.<locals>.DFHF'> to RHF
Converting <class 'pyscf.df.df_jk.density_fit.<locals>.DFHF'> to RHF
hdiag shape (224298,)
n_occ =  153
n_vir =  1466
max_vir =  480
A_size =  224298
A_reduced_size = 73440
a_x = 0.25
beta = 0.6575
alpha = 1.54
Q-Gamma tensors building time = 2.38
after Q matrix memory used: 42.91 GB
TDDFT
|-------- In-house Developed TDDFT Starts ---------|
Residual conv = 1e-05

Number of excited states = 1
Initial guess:   sTDDFT
Preconditioner:  sTDDFT
A matrix size =  224298
setting initial guess
sTDDFT Convergence tol = 1.00e-03
sTDDFT diagonalization Converged
after  5 iterations; 4.5969 seconds
final subspace 11
max_norm =  5.81e-04
MVcost     3.8247s 83.20%
GScost     0.2951s 6.42%
subgencost 0.2915s 6.34%
subcost    0.0034s 0.07%
sTDDFT excitation energy:
[1.64537192 2.14152242]
new_m = 2
initial guess done

iteration 0
beginning of step 0 memory used: 43.13 GB
    CPU time for df vj and vk   4560.27 sec, wall time    298.95 sec
subspace size: 2
Maximum residual norm:  8.87e-02
unconverged states [0]
sTDDFT_preconditioner conv 0.01
sTDDFT preconditioning Done
after 5 steps; 2.5393 s
final subspace 5
max_norm =  8.29e-03
initial_cost 0.0479s  1.89%
MVcost     1.9892s  78.34%
GScost     0.1443s  5.68%
subgencost 0.2417s  9.52%
subcost    0.0084s  0.33%
m & new_m 2 3

iteration 1
beginning of step 1 memory used: 43.15 GB
    CPU time for df vj and vk   2287.38 sec, wall time    154.70 sec
subspace size: 3
Maximum residual norm:  1.87e-02
unconverged states [0]
sTDDFT_preconditioner conv 0.01
sTDDFT preconditioning Done
after 6 steps; 1.9366 s
final subspace 6
max_norm =  9.29e-03
initial_cost 0.0181s  0.94%
MVcost     1.5452s  79.79%
GScost     0.1105s  5.71%
subgencost 0.1740s  8.99%
subcost    0.0028s  0.15%
m & new_m 3 4

iteration 2
beginning of step 2 memory used: 43.15 GB
    CPU time for df vj and vk   2299.72 sec, wall time    154.96 sec
subspace size: 4
Maximum residual norm:  6.40e-03
unconverged states [0]
sTDDFT_preconditioner conv 0.01
sTDDFT preconditioning Done
after 6 steps; 1.9846 s
final subspace 6
max_norm =  3.73e-03
initial_cost 0.0145s  0.73%
MVcost     1.5674s  78.98%
GScost     0.1094s  5.51%
subgencost 0.1969s  9.92%
subcost    0.0106s  0.53%
m & new_m 4 5

iteration 3
beginning of step 3 memory used: 43.15 GB
    CPU time for df vj and vk   2305.76 sec, wall time    155.29 sec
subspace size: 5
Maximum residual norm:  1.67e-03
unconverged states [0]
sTDDFT_preconditioner conv 0.01
sTDDFT preconditioning Done
after 6 steps; 1.8622 s
final subspace 6
max_norm =  5.33e-03
initial_cost 0.0140s  0.75%
MVcost     1.4830s  79.64%
GScost     0.1112s  5.97%
subgencost 0.1607s  8.63%
subcost    0.0028s  0.15%
m & new_m 5 6

iteration 4
beginning of step 4 memory used: 43.15 GB
    CPU time for df vj and vk   2287.04 sec, wall time    155.57 sec
subspace size: 6
Maximum residual norm:  4.35e-04
unconverged states [0]
sTDDFT_preconditioner conv 0.01
sTDDFT preconditioning Done
after 6 steps; 1.9400 s
final subspace 6
max_norm =  6.25e-03
initial_cost 0.0142s  0.73%
MVcost     1.5414s  79.45%
GScost     0.1034s  5.33%
subgencost 0.1946s  10.03%
subcost    0.0030s  0.15%
m & new_m 6 7

iteration 5
beginning of step 5 memory used: 43.15 GB
    CPU time for df vj and vk   2281.00 sec, wall time    154.67 sec
subspace size: 7
Maximum residual norm:  1.33e-04
unconverged states [0]
sTDDFT_preconditioner conv 0.01
sTDDFT preconditioning Done
after 6 steps; 2.4079 s
final subspace 6
max_norm =  6.18e-03
initial_cost 0.0132s  0.55%
MVcost     1.8676s  77.56%
GScost     0.1597s  6.63%
subgencost 0.2486s  10.33%
subcost    0.0095s  0.40%
m & new_m 7 8

iteration 6
beginning of step 6 memory used: 43.11 GB
    CPU time for df vj and vk   2272.76 sec, wall time    153.72 sec
subspace size: 8
Maximum residual norm:  3.95e-05
unconverged states [0]
sTDDFT_preconditioner conv 0.01
sTDDFT preconditioning Done
after 6 steps; 2.7949 s
final subspace 6
max_norm =  3.84e-03
initial_cost 0.0255s  0.91%
MVcost     2.1162s  75.72%
GScost     0.2015s  7.21%
subgencost 0.3016s  10.79%
subcost    0.0186s  0.67%
m & new_m 8 9

iteration 7
beginning of step 7 memory used: 43.15 GB
    CPU time for df vj and vk   2281.46 sec, wall time    154.10 sec
subspace size: 9
Maximum residual norm:  1.10e-05
unconverged states [0]
sTDDFT_preconditioner conv 0.01
sTDDFT preconditioning Done
after 6 steps; 2.4540 s
final subspace 6
max_norm =  6.12e-03
initial_cost 0.0259s  1.05%
MVcost     1.9148s  78.03%
GScost     0.1527s  6.22%
subgencost 0.2468s  10.06%
subcost    0.0089s  0.36%
m & new_m 9 10

iteration 8
beginning of step 8 memory used: 43.15 GB
    CPU time for df vj and vk   2278.77 sec, wall time    154.71 sec
subspace size: 10
Maximum residual norm:  3.89e-06
TDDFT precedure Done

============= TDDFT Calculation Done ==============
after 9 iterations 1938.16 s
Final subspace  10
preconditioning cost 17.9724 0.01 %
max_norm =  3.89e-06
Total TDDFT memory used: 43.15 GB
Excited State energies (eV) =
 [1.90340538]

Number of excited states = 1
Initial guess:   Adiag
Preconditioner:  Adiag
A matrix size =  224298
new_m = 2
initial guess done

iteration 0
beginning of step 0 memory used: 43.15 GB
    CPU time for df vj and vk   4557.59 sec, wall time    296.19 sec
subspace size: 2
Maximum residual norm:  1.27e-01
unconverged states [0]
m & new_m 2 3

iteration 1
beginning of step 1 memory used: 43.11 GB
    CPU time for df vj and vk   2303.91 sec, wall time    151.48 sec
subspace size: 3
Maximum residual norm:  3.93e-02
unconverged states [0]
m & new_m 3 4

iteration 2
beginning of step 2 memory used: 43.13 GB
    CPU time for df vj and vk   2300.56 sec, wall time    152.19 sec
subspace size: 4
Maximum residual norm:  1.66e-02
unconverged states [0]
m & new_m 4 5

iteration 3
beginning of step 3 memory used: 43.13 GB
    CPU time for df vj and vk   2296.50 sec, wall time    153.39 sec
subspace size: 5
Maximum residual norm:  8.58e-03
unconverged states [0]
m & new_m 5 6

iteration 4
beginning of step 4 memory used: 43.13 GB
    CPU time for df vj and vk   2289.94 sec, wall time    153.57 sec
subspace size: 6
Maximum residual norm:  3.30e-03
unconverged states [0]
m & new_m 6 7

iteration 5
beginning of step 5 memory used: 43.13 GB
    CPU time for df vj and vk   2285.12 sec, wall time    153.50 sec
subspace size: 7
Maximum residual norm:  1.48e-03
unconverged states [0]
m & new_m 7 8

iteration 6
beginning of step 6 memory used: 43.13 GB
    CPU time for df vj and vk   2292.69 sec, wall time    153.34 sec
subspace size: 8
Maximum residual norm:  4.81e-04
unconverged states [0]
m & new_m 8 9

iteration 7
beginning of step 7 memory used: 43.13 GB
    CPU time for df vj and vk   2284.63 sec, wall time    152.80 sec
subspace size: 9
Maximum residual norm:  2.10e-04
unconverged states [0]
m & new_m 9 10

iteration 8
beginning of step 8 memory used: 43.13 GB
    CPU time for df vj and vk   2306.02 sec, wall time    153.85 sec
subspace size: 10
Maximum residual norm:  6.94e-05
unconverged states [0]
m & new_m 10 11

iteration 9
beginning of step 9 memory used: 43.13 GB
    CPU time for df vj and vk   2353.43 sec, wall time    151.56 sec
subspace size: 11
Maximum residual norm:  2.40e-05
unconverged states [0]
m & new_m 11 12

iteration 10
beginning of step 10 memory used: 43.13 GB
    CPU time for df vj and vk   2344.34 sec, wall time    152.33 sec
subspace size: 12
Maximum residual norm:  1.03e-05
unconverged states [0]
m & new_m 12 13

iteration 11
beginning of step 11 memory used: 43.13 GB
    CPU time for df vj and vk   2301.99 sec, wall time    152.81 sec
subspace size: 13
Maximum residual norm:  5.23e-06
TDDFT precedure Done

============= TDDFT Calculation Done ==============
after 12 iterations 2473.09 s
Final subspace  13
preconditioning cost 0.0748 0.00 %
max_norm =  5.23e-06
Total TDDFT memory used: 43.13 GB
Excited State energies (eV) =
 [1.90340538]
xyzfile = 99_Carotenoid_B.xyz
checkfile = True
method = RKS
functional = pbe0
basis_set = def2-tzvp
density_fit = True
grid_level = 3
nstates = 1
pytd = False
TDA = False
TDDFT = True
dynpol = False
dynpol_omega = []
stapol = False
sTDA = False
sTDDFT = False
Truncate_test = False
truncate_virtual = 40.0
ip_options = [0, 1]
conv_tolerance = 1e-05
initial_TOL = 0.001
precond_TOL = 0.01
extrainitial = 8
max = 30
eigensolver_tol = 1e-05
memory = 160000
verbose = 5
beta = []
alpha = []
|-------- In-house Developed TDDFT Ends ----------|
